ITEM: TIMESTEP
0
ITEM: NUMBER OF ATOMS
76
ITEM: BOX BOUNDS pp pp pp
-1.0000000000000000e+01 1.0000000000000000e+01
-1.0000000000000000e+01 1.0000000000000000e+01
-1.2000000000000000e+02 1.2000000000000000e+02
ITEM: ATOMS id mol type xu yu zu 
1 1 1 -1.09918 -0.946312 -3.33537 
16 1 1 0.204501 -0.438944 -2.95826 
2 1 1 -0.945499 0.00316136 -3.05747 
18 1 1 -0.519709 -2.12342 -2.50958 
17 1 1 -0.0407618 -1.25368 -2.45352 
63 1 1 -2.31234 -0.568944 -2.70431 
64 1 1 -2.24629 0.408951 -2.53563 
15 1 1 0.324765 0.333161 -2.33616 
14 1 1 0.0163435 1.2829 -2.36958 
20 1 1 -0.628657 -3.20368 -1.65958 
19 1 1 -1.21418 -2.41684 -1.848 
62 1 1 -2.72681 -1.11473 -1.96931 
65 1 1 -2.37471 0.327372 -1.55168 
3 1 1 -1.10734 0.276056 -2.11037 
4 1 1 -0.966025 1.165 -1.663 
33 1 1 2.4645 1.04869 -1.65352 
13 1 1 0.33608 1.91579 -1.66852 
57 1 1 -1.97866 -2.74368 -0.918788 
21 1 1 0.0929224 -2.6121 -1.30274 
61 1 1 -2.43655 -1.24894 -1.00695 
29 1 1 1.8495 -0.425786 -1.27589 
30 1 1 1.65476 0.410793 -0.75563 
32 1 1 2.96713 0.266582 -1.28247 
66 1 1 -1.90287 0.987635 -0.954051 
5 1 1 -0.483657 1.30421 -0.792999 
34 1 1 2.42976 1.72053 -0.90642 
12 1 1 -0.237078 2.63448 -1.27984 
11 1 1 0.19687 3.42185 -0.838262 
55 1 1 -0.754972 -2.84658 -0.250893 
22 1 1 0.251343 -2.6171 -0.323788 
60 1 1 -2.99418 -2.015 -0.662472 
56 1 1 -1.27602 -2.07894 -0.643262 
25 1 1 1.3545 -1.85894 -0.582735 
26 1 1 0.813186 -1.02947 -0.667999 
28 1 1 2.19766 -0.854733 -0.43063 
67 1 1 -1.39313 0.684214 -0.141157 
31 1 1 2.58582 0.394477 -0.368788 
35 1 1 3.13213 1.38421 -0.28563 
6 1 1 -0.724183 2.18579 -0.36142 
10 1 1 -0.385499 3.93448 -0.22063 
58 1 1 -2.11181 -2.99236 0.0464751 
59 1 1 -2.46418 -2.06842 0.193317 
23 1 1 0.222396 -1.79158 0.237001 
24 1 1 1.2074 -1.91763 0.40858 
27 1 1 1.35608 -0.603681 0.0577909 
45 1 1 -2.18866 0.0139508 0.701738 
68 1 1 -1.12208 1.34685 0.561475 
36 1 1 2.5745 1.23869 0.52437 
7 1 1 -0.0573407 2.53527 0.301475 
9 1 1 0.257659 3.92921 0.535949 
54 1 1 -0.614446 -3.04473 0.726212 
53 1 1 0.29608 -3.17026 1.13384 
52 1 1 0.478712 -2.19447 1.31516 
38 1 1 2.20371 -0.26026 1.15069 
46 1 1 -3.15787 0.0352666 0.93858 
44 1 1 -1.42339 0.30553 1.28542 
43 1 1 -0.442341 0.148425 1.15516 
37 1 1 2.8995 0.458425 1.07305 
69 1 1 -0.16892 1.35158 0.871738 
8 1 1 -0.219972 3.2029 1.03963 
51 1 1 -0.375762 -1.93473 1.782 
50 1 1 -0.951814 -1.18105 1.44621 
48 1 1 -2.34024 -0.582365 2.00437 
47 1 1 -2.90629 0.232898 1.87858 
42 1 1 0.199238 0.347372 1.91148 
41 1 1 1.13029 0.491056 1.56753 
70 1 1 0.00950139 1.67369 1.80463 
71 1 1 0.974238 1.70079 2.09595 
49 1 1 -1.3405 -0.562365 2.13858 
39 1 1 2.26845 -0.248944 2.15226 
40 1 1 1.91976 0.691582 2.15674 
72 1 1 1.24161 1.35921 2.99463 
73 1 1 2.1645 1.70869 3.20095 
74 1 1 2.74476 1.26132 3.87805 
75 1 1 3.00055 1.98448 4.51832 
76 1 1 2.61319 2.84316 4.84937 
ITEM: TIMESTEP
2000
ITEM: NUMBER OF ATOMS
76
ITEM: BOX BOUNDS pp pp pp
-1.0000000000000000e+01 1.0000000000000000e+01
-1.0000000000000000e+01 1.0000000000000000e+01
-1.2000000000000000e+02 1.2000000000000000e+02
ITEM: ATOMS id mol type xu yu zu 
18 1 1 -0.430545 -1.77706 -3.58445 
1 1 1 -0.461688 -0.39976 -4.29535 
16 1 1 0.899194 -0.454917 -3.8012 
2 1 1 0.00616556 0.393592 -3.90285 
20 1 1 -1.00306 -2.8087 -2.87081 
19 1 1 -1.23887 -1.84614 -2.99461 
17 1 1 0.328272 -1.15956 -3.40593 
63 1 1 -1.50041 0.347452 -3.68286 
64 1 1 -1.09372 1.20969 -3.39958 
15 1 1 1.24091 0.156584 -3.08923 
21 1 1 -0.14821 -2.5658 -2.41451 
62 1 1 -2.14887 -0.0661341 -3.03607 
3 1 1 -0.125324 0.62143 -2.93928 
33 1 1 3.42583 -0.0477728 -2.22852 
14 1 1 1.30815 1.15152 -3.02737 
55 1 1 -1.11071 -2.55779 -1.43787 
60 1 1 -2.84138 -0.913093 -1.85587 
57 1 1 -2.14753 -1.94369 -2.14637 
56 1 1 -1.27621 -1.61892 -1.7632 
22 1 1 -0.088376 -2.71742 -1.43629 
25 1 1 1.23447 -2.40906 -1.55378 
61 1 1 -2.01316 -0.384969 -2.08301 
26 1 1 1.04633 -1.43299 -1.56822 
29 1 1 2.2807 -1.21084 -2.05289 
65 1 1 -1.32803 1.09468 -2.43876 
32 1 1 3.5708 -0.991174 -1.92688 
4 1 1 0.29408 1.34843 -2.3862 
13 1 1 1.77637 1.55264 -2.24371 
12 1 1 1.47682 2.39609 -1.80217 
58 1 1 -2.44615 -2.20941 -1.22359 
59 1 1 -2.44474 -1.23789 -0.987926 
23 1 1 0.140223 -1.99513 -0.786021 
28 1 1 2.37161 -1.81285 -1.24729 
27 1 1 1.64269 -1.30893 -0.773381 
30 1 1 2.36342 -0.412483 -1.44937 
31 1 1 3.18566 -0.811707 -1.02354 
66 1 1 -0.699956 1.47319 -1.7474 
5 1 1 0.716344 1.21796 -1.48419 
34 1 1 3.57629 0.518256 -1.41138 
35 1 1 4.04867 -0.111225 -0.80112 
11 1 1 2.13018 2.92004 -1.25277 
54 1 1 -1.13842 -2.88071 -0.484611 
53 1 1 -0.37722 -3.37483 -0.0517218 
24 1 1 0.990657 -2.4966 -0.583891 
67 1 1 -0.410433 0.929207 -0.951809 
36 1 1 3.40861 -0.108514 -0.0405009 
6 1 1 0.780961 2.08295 -0.965626 
10 1 1 1.72634 3.55639 -0.608267 
51 1 1 -0.600271 -2.04073 0.702232 
52 1 1 0.135507 -2.55944 0.249346 
50 1 1 -0.826738 -1.09914 0.42884 
46 1 1 -2.37668 0.896619 -0.0385188 
45 1 1 -1.46684 0.53422 -0.230291 
44 1 1 -0.701737 0.463684 0.418545 
43 1 1 0.159795 -0.037957 0.31742 
38 1 1 2.45893 -1.40809 0.390565 
37 1 1 3.37443 -0.999401 0.429222 
68 1 1 0.0235474 1.37591 -0.165445 
69 1 1 0.88064 0.994646 0.187872 
7 1 1 1.4694 2.0957 -0.236155 
9 1 1 2.25406 3.24239 0.172123 
48 1 1 -1.93984 -0.0754382 0.986263 
49 1 1 -1.01873 -0.44436 1.16886 
47 1 1 -2.15259 0.900433 0.928809 
42 1 1 0.761299 -0.16294 1.12103 
39 1 1 2.4361 -1.5115 1.38869 
41 1 1 1.70589 -0.349221 0.840222 
70 1 1 1.08347 1.1414 1.15906 
8 1 1 1.50071 2.70667 0.565589 
40 1 1 2.45937 -0.513336 1.48518 
71 1 1 1.96116 0.778122 1.4967 
72 1 1 2.00484 0.282272 2.36158 
73 1 1 2.96992 0.239707 2.65011 
74 1 1 3.28348 -0.451405 3.29768 
75 1 1 3.73104 0.0624331 4.02843 
76 1 1 3.66003 0.97042 4.43768 
ITEM: TIMESTEP
4000
ITEM: NUMBER OF ATOMS
76
ITEM: BOX BOUNDS pp pp pp
-1.0000000000000000e+01 1.0000000000000000e+01
-1.0000000000000000e+01 1.0000000000000000e+01
-1.2000000000000000e+02 1.2000000000000000e+02
ITEM: ATOMS id mol type xu yu zu 
18 1 1 -1.43986 -0.651827 -2.59503 
17 1 1 -0.638024 -0.142139 -2.30134 
1 1 1 -1.41453 0.865141 -2.91357 
16 1 1 -0.0410355 0.613826 -2.5268 
2 1 1 -0.883548 1.50108 -2.35143 
20 1 1 -2.04588 -1.80747 -2.14942 
21 1 1 -1.16025 -1.73718 -1.69259 
19 1 1 -2.22681 -0.836523 -2.00116 
63 1 1 -2.38016 1.47124 -2.06942 
15 1 1 0.36567 0.995545 -1.69825 
57 1 1 -3.10529 -1.11276 -1.16054 
22 1 1 -1.071 -2.14731 -0.794089 
25 1 1 0.262587 -1.88354 -0.89801 
28 1 1 1.44551 -1.44694 -0.507427 
26 1 1 0.134381 -0.931127 -0.643492 
62 1 1 -3.0266 0.931989 -1.52058 
29 1 1 1.35981 -0.647941 -1.11892 
32 1 1 2.66497 -0.532977 -1.01006 
33 1 1 2.56639 0.462613 -1.04307 
64 1 1 -1.9103 2.20563 -1.59088 
3 1 1 -0.96236 1.46938 -1.35622 
14 1 1 0.496345 1.93331 -1.37926 
58 1 1 -3.38275 -1.60044 -0.325981 
55 1 1 -2.08083 -1.9435 -0.697475 
23 1 1 -0.772748 -1.63698 0.0105346 
24 1 1 0.0526147 -2.215 0.0260242 
60 1 1 -3.72237 -0.164697 -0.570328 
56 1 1 -2.20111 -0.94494 -0.753368 
61 1 1 -2.87294 0.363951 -0.694668 
27 1 1 0.768377 -1.05306 0.122003 
30 1 1 1.5154 -0.0448066 -0.331216 
31 1 1 2.32782 -0.582799 -0.0717575 
35 1 1 3.24042 -0.0100472 0.280446 
65 1 1 -2.11285 1.8497 -0.683365 
34 1 1 2.78374 0.781789 -0.114835 
4 1 1 -0.477396 2.00092 -0.654369 
13 1 1 1.01914 2.08725 -0.544236 
53 1 1 -1.34442 -3.13581 0.380977 
54 1 1 -2.09041 -2.50757 0.136481 
59 1 1 -3.31225 -0.728431 0.157774 
66 1 1 -1.43569 1.99874 0.0480635 
5 1 1 -0.0284151 1.61386 0.156529 
12 1 1 0.789798 2.79566 0.120335 
52 1 1 -0.770968 -2.45642 0.858454 
38 1 1 1.62261 -1.49913 1.17183 
37 1 1 2.56232 -1.16068 1.26706 
67 1 1 -1.14875 1.24859 0.654394 
36 1 1 2.6325 -0.179455 1.04853 
6 1 1 0.109825 2.3047 0.881047 
11 1 1 1.49547 3.12136 0.752157 
51 1 1 -1.45487 -2.04236 1.47193 
50 1 1 -1.63372 -1.05209 1.4701 
39 1 1 1.63318 -1.86416 2.10677 
41 1 1 0.954568 -0.563494 1.926 
46 1 1 -3.0754 1.06898 1.63267 
45 1 1 -2.19791 0.727135 1.30242 
44 1 1 -1.41339 0.448697 1.86665 
43 1 1 -0.589032 -0.0490221 1.5895 
69 1 1 0.188205 0.944309 1.69842 
68 1 1 -0.6572 1.44734 1.50594 
7 1 1 0.826214 2.08861 1.54913 
10 1 1 1.15745 3.58131 1.56309 
49 1 1 -1.75552 -0.610225 2.36628 
48 1 1 -2.65874 -0.161555 2.33842 
42 1 1 0.0351324 -0.413242 2.2973 
40 1 1 1.72159 -0.930395 2.46238 
47 1 1 -2.81322 0.80336 2.55281 
70 1 1 0.438133 0.816261 2.66124 
71 1 1 1.30456 0.333721 2.84226 
8 1 1 0.926878 2.46095 2.48095 
9 1 1 1.69549 3.04498 2.20258 
72 1 1 1.35204 -0.376648 3.54149 
73 1 1 2.32338 -0.541655 3.75525 
74 1 1 2.61937 -1.39504 4.17884 
75 1 1 3.12638 -1.11748 4.99385 
76 1 1 3.12765 -0.349464 5.63191 
ITEM: TIMESTEP
6000
ITEM: NUMBER OF ATOMS
76
ITEM: BOX BOUNDS pp pp pp
-1.0000000000000000e+01 1.0000000000000000e+01
-1.0000000000000000e+01 1.0000000000000000e+01
-1.2000000000000000e+02 1.2000000000000000e+02
ITEM: ATOMS id mol type xu yu zu 
20 1 1 -1.21364 -1.62346 -3.46589 
57 1 1 -2.61393 -1.04037 -2.93479 
18 1 1 -0.609396 -0.412338 -3.72934 
19 1 1 -1.53077 -0.676955 -3.43418 
1 1 1 -0.626868 1.09529 -4.08997 
22 1 1 -0.740343 -1.84189 -1.84383 
55 1 1 -1.73602 -1.74935 -2.10974 
21 1 1 -0.553058 -1.4522 -2.73632 
58 1 1 -3.11331 -1.548 -2.2247 
56 1 1 -1.92857 -0.770588 -2.24996 
17 1 1 -0.0142956 0.184966 -3.20202 
16 1 1 0.545132 0.999848 -3.24349 
60 1 1 -3.48877 -0.160509 -2.63739 
62 1 1 -2.61997 0.997304 -3.34056 
63 1 1 -1.88067 1.59929 -3.65827 
53 1 1 -1.30398 -2.84376 -0.78967 
54 1 1 -1.97773 -2.30348 -1.3046 
25 1 1 0.513096 -1.43421 -1.49526 
59 1 1 -3.30238 -0.669175 -1.7873 
61 1 1 -2.70625 0.45708 -2.48668 
2 1 1 -0.390065 1.79076 -3.40983 
64 1 1 -1.68171 2.38514 -3.08212 
52 1 1 -1.00256 -2.1012 -0.176355 
24 1 1 0.0300262 -1.77834 -0.685313 
23 1 1 -0.792116 -1.29463 -1.01038 
26 1 1 0.210146 -0.499373 -1.3449 
29 1 1 1.48958 -0.087637 -1.38286 
15 1 1 0.599065 1.43141 -2.34435 
3 1 1 -0.805429 1.75961 -2.50199 
65 1 1 -2.14969 2.01736 -2.28398 
28 1 1 1.43732 -0.866823 -0.742689 
51 1 1 -1.89445 -1.75921 0.144747 
27 1 1 0.548233 -0.544003 -0.403359 
32 1 1 2.65761 0.17095 -0.837554 
50 1 1 -2.15954 -0.794633 0.0354931 
14 1 1 0.516669 2.38071 -2.04387 
66 1 1 -1.78661 2.24648 -1.37216 
4 1 1 -0.64955 2.34754 -1.70176 
31 1 1 2.02284 0.0929022 -0.071037 
30 1 1 1.30134 0.536045 -0.618627 
33 1 1 2.47765 1.14935 -0.948712 
48 1 1 -3.50551 -0.0142292 0.456225 
45 1 1 -2.80533 0.910275 -0.398439 
67 1 1 -1.65426 1.53791 -0.669945 
5 1 1 -0.473272 2.01948 -0.768878 
13 1 1 0.699382 2.59868 -1.08816 
46 1 1 -3.77236 1.15666 -0.406157 
38 1 1 1.02553 -0.884033 0.895645 
35 1 1 2.69466 0.765581 0.546299 
34 1 1 2.32667 1.49886 -0.0182378 
49 1 1 -2.62797 -0.36072 0.813644 
43 1 1 -1.32681 0.318137 0.459851 
44 1 1 -2.24145 0.724801 0.413339 
47 1 1 -3.8203 0.929787 0.559337 
68 1 1 -1.51089 1.79714 0.288434 
6 1 1 -0.664535 2.72786 -0.0739557 
12 1 1 0.184324 3.28361 -0.57661 
39 1 1 0.747717 -1.23721 1.79317 
37 1 1 1.83512 -0.443581 1.29217 
41 1 1 0.0475575 -0.0206311 1.32989 
36 1 1 1.87831 0.537397 1.06567 
42 1 1 -0.953686 0.0310936 1.35518 
69 1 1 -0.738911 1.39176 0.782914 
7 1 1 -0.206428 2.59781 0.808921 
11 1 1 0.590883 3.69056 0.243365 
40 1 1 0.613611 -0.296202 2.11365 
71 1 1 -0.0333031 0.917857 2.26783 
70 1 1 -0.826821 1.30066 1.77783 
10 1 1 -0.0514501 4.11793 0.866402 
72 1 1 -0.160478 0.223361 2.97302 
8 1 1 -0.472787 2.98738 1.70018 
9 1 1 0.282224 3.64974 1.67607 
74 1 1 0.902265 -0.643876 4.05374 
73 1 1 0.687817 0.16797 3.51502 
75 1 1 1.06484 -0.304944 4.9795 
76 1 1 0.768106 0.464316 5.54267 
ITEM: TIMESTEP
8000
ITEM: NUMBER OF ATOMS
76
ITEM: BOX BOUNDS pp pp pp
-1.0000000000000000e+01 1.0000000000000000e+01
-1.0000000000000000e+01 1.0000000000000000e+01
-1.2000000000000000e+02 1.2000000000000000e+02
ITEM: ATOMS id mol type xu yu zu 
20 1 1 1.95811 -1.47756 -4.4342 
19 1 1 1.45334 -0.616038 -4.41308 
18 1 1 2.26193 -0.212265 -3.97807 
17 1 1 2.24699 0.213522 -3.07948 
1 1 1 2.07371 1.32581 -3.93106 
16 1 1 2.48701 1.02958 -2.57436 
21 1 1 1.98275 -1.51575 -3.43624 
15 1 1 1.88176 1.14306 -1.78797 
63 1 1 0.732309 1.58047 -4.31603 
2 1 1 1.66976 1.77145 -3.1307 
55 1 1 0.786312 -2.07566 -3.80409 
22 1 1 1.40998 -2.18871 -2.98622 
25 1 1 2.05148 -1.84177 -1.8343 
28 1 1 2.16082 -1.498 -0.564518 
57 1 1 0.425644 -1.19026 -4.82392 
56 1 1 0.470316 -1.11934 -3.82169 
26 1 1 1.48996 -1.02947 -1.71954 
29 1 1 2.38011 -0.549673 -0.833349 
32 1 1 2.87809 -0.413347 0.37576 
33 1 1 2.55449 0.533835 0.387515 
62 1 1 0.136056 0.862737 -4.68918 
3 1 1 0.821618 1.41704 -2.73992 
64 1 1 0.33806 2.14319 -3.597 
14 1 1 1.39509 1.93317 -1.41767 
53 1 1 0.612674 -3.51503 -2.79164 
54 1 1 0.266534 -2.87812 -3.48843 
24 1 1 1.29087 -2.46295 -1.62598 
58 1 1 -0.245752 -1.93356 -4.73433 
23 1 1 0.733452 -1.95114 -2.29147 
27 1 1 1.19879 -1.36093 -0.820561 
59 1 1 -0.876858 -1.26159 -4.3476 
31 1 1 1.95911 -0.778968 0.511275 
60 1 1 -0.644485 -0.513723 -4.98228 
30 1 1 1.62114 -0.225759 -0.261073 
61 1 1 -0.297987 0.0669619 -4.23448 
65 1 1 -0.397924 1.50454 -3.39264 
4 1 1 0.312413 1.71676 -1.92677 
13 1 1 0.909398 1.83479 -0.552405 
52 1 1 0.285503 -2.99898 -1.98849 
35 1 1 1.92955 -0.30709 1.54152 
34 1 1 1.79581 0.54697 1.04704 
5 1 1 -0.0235571 1.11111 -1.19926 
66 1 1 -0.723094 1.44233 -2.44073 
51 1 1 -0.672763 -2.83803 -2.2556 
50 1 1 -1.05873 -1.90978 -2.30036 
38 1 1 0.87728 -2.07988 0.36712 
37 1 1 1.14392 -1.74543 1.2747 
36 1 1 1.05814 -0.743939 1.34649 
45 1 1 -1.7326 -0.200687 -2.67045 
67 1 1 -0.857009 0.551527 -1.99214 
6 1 1 -0.765487 1.53747 -0.66162 
12 1 1 0.0361177 2.27942 -0.363238 
11 1 1 -0.247257 2.41769 0.587463 
39 1 1 0.223165 -2.72572 0.770211 
43 1 1 -0.964691 -0.949702 -1.21353 
42 1 1 -1.13907 -1.49212 -0.377712 
41 1 1 -0.3485 -1.47037 0.238992 
44 1 1 -1.73832 -0.608037 -1.751 
46 1 1 -2.52778 -0.0260532 -3.2476 
68 1 1 -1.3849 0.488686 -1.14148 
69 1 1 -0.986663 -0.00830458 -0.367391 
7 1 1 -0.908328 1.15233 0.253538 
49 1 1 -1.99025 -1.78661 -1.93936 
40 1 1 -0.312624 -1.95322 1.12002 
48 1 1 -2.53516 -1.39684 -2.69371 
71 1 1 -1.21038 -0.900492 1.07532 
47 1 1 -3.07997 -0.561054 -2.61926 
70 1 1 -1.62185 -0.427576 0.285779 
9 1 1 -1.32387 1.88776 1.42986 
10 1 1 -1.21721 2.57503 0.721079 
72 1 1 -1.54726 -1.79512 1.36158 
73 1 1 -1.2096 -1.97333 2.29467 
8 1 1 -1.74186 1.20897 0.818405 
74 1 1 -1.15709 -2.90242 2.6543 
75 1 1 -1.67154 -2.87824 3.51051 
76 1 1 -2.43112 -2.35763 3.89649 
ITEM: TIMESTEP
10000
ITEM: NUMBER OF ATOMS
76
ITEM: BOX BOUNDS pp pp pp
-1.0000000000000000e+01 1.0000000000000000e+01
-1.0000000000000000e+01 1.0000000000000000e+01
-1.2000000000000000e+02 1.2000000000000000e+02
ITEM: ATOMS id mol type xu yu zu 
58 1 1 -1.74997 -3.51072 -3.73378 
60 1 1 -2.71902 -2.40624 -4.01216 
57 1 1 -1.69013 -2.93162 -4.55376 
59 1 1 -2.13354 -2.72162 -3.25461 
20 1 1 -0.370866 -3.0146 -5.46783 
61 1 1 -2.21965 -1.53368 -4.08788 
19 1 1 -1.00212 -2.25126 -5.34016 
62 1 1 -2.57658 -1.08996 -4.92699 
63 1 1 -2.23496 -0.295699 -5.43918 
54 1 1 -0.211391 -3.70085 -3.18286 
55 1 1 -0.422867 -3.18253 -4.01974 
56 1 1 -1.00201 -2.36152 -4.09227 
21 1 1 0.344634 -2.54012 -4.95705 
18 1 1 -0.365284 -1.70041 -5.88521 
64 1 1 -2.20242 0.563242 -4.93893 
1 1 1 -1.04883 -0.348756 -6.21551 
53 1 1 0.728057 -3.902 -2.8863 
22 1 1 0.565359 -2.87744 -4.05098 
48 1 1 -1.96124 -1.9594 -1.04261 
46 1 1 -2.87233 -1.06187 -1.7844 
17 1 1 0.0765624 -0.876359 -5.54655 
65 1 1 -2.26389 0.134046 -4.04265 
2 1 1 -0.920672 0.451042 -5.62708 
51 1 1 0.0439871 -3.01803 -1.81454 
52 1 1 0.87772 -3.04191 -2.3801 
49 1 1 -0.956886 -1.92302 -0.954043 
50 1 1 -0.585744 -2.23345 -1.83672 
23 1 1 0.535118 -2.30438 -3.23398 
47 1 1 -2.57035 -1.19018 -0.847228 
45 1 1 -1.92026 -0.936101 -2.05583 
66 1 1 -1.78507 0.5722 -3.27161 
3 1 1 -1.03379 0.363814 -4.63852 
16 1 1 0.25208 0.0776085 -5.7411 
24 1 1 1.53375 -2.41851 -3.16145 
25 1 1 1.6144 -2.00692 -4.07352 
44 1 1 -1.13318 -0.818573 -1.44098 
26 1 1 1.0319 -1.23702 -3.83633 
67 1 1 -1.21126 0.0369303 -2.64159 
4 1 1 -0.904402 1.04689 -3.91257 
15 1 1 0.37692 0.588943 -4.89224 
14 1 1 0.0244835 1.46813 -4.57434 
43 1 1 -0.156378 -0.856255 -1.66131 
27 1 1 1.60031 -1.05826 -3.0315 
28 1 1 2.41942 -1.06729 -3.61359 
68 1 1 -0.926014 0.427526 -1.76278 
29 1 1 1.99897 -0.392936 -4.23659 
5 1 1 -0.374188 0.903443 -3.07159 
42 1 1 0.522601 -0.89376 -0.912442 
41 1 1 1.42234 -0.578768 -1.22398 
69 1 1 0.043842 0.384953 -1.51304 
30 1 1 1.80035 0.19393 -3.44628 
6 1 1 -0.626145 1.56046 -2.34623 
12 1 1 -0.219459 2.33294 -3.06732 
13 1 1 0.359508 1.83464 -3.70964 
39 1 1 2.62775 -1.40139 -0.989032 
38 1 1 2.49971 -1.06532 -1.92612 
70 1 1 0.266814 0.370709 -0.535312 
31 1 1 2.75402 0.103437 -3.13145 
32 1 1 3.08153 0.328651 -4.04719 
7 1 1 0.0652618 1.69797 -1.63259 
33 1 1 2.52146 1.1569 -4.09549 
11 1 1 0.205878 2.94208 -2.39553 
72 1 1 1.58538 -0.260237 0.411461 
40 1 1 2.23801 -0.546691 -0.637203 
71 1 1 1.24599 0.356423 -0.295883 
37 1 1 3.156 -0.321555 -1.77529 
36 1 1 2.76175 0.578688 -1.99803 
35 1 1 3.25934 1.03448 -2.72802 
8 1 1 -0.0797994 2.05273 -0.699762 
34 1 1 2.50428 1.52073 -3.15844 
10 1 1 -0.358349 3.16705 -1.61166 
73 1 1 2.50287 0.0537763 0.687209 
9 1 1 0.331429 2.93873 -0.934777 
74 1 1 3.1448 -0.563871 1.13637 
75 1 1 3.40812 -0.0958641 1.97897 
76 1 1 3.00438 0.565464 2.60874 
ITEM: TIMESTEP
12000
ITEM: NUMBER OF ATOMS
76
ITEM: BOX BOUNDS pp pp pp
-1.0000000000000000e+01 1.0000000000000000e+01
-1.0000000000000000e+01 1.0000000000000000e+01
-1.2000000000000000e+02 1.2000000000000000e+02
ITEM: ATOMS id mol type xu yu zu 
1 1 1 -0.340693 -0.602268 -6.5888 
18 1 1 -0.235118 -2.03296 -6.0012 
17 1 1 0.414848 -1.35852 -5.66705 
63 1 1 -1.5314 -0.0370854 -6.06422 
16 1 1 0.94262 -0.560143 -5.91757 
64 1 1 -1.27092 0.830874 -5.65447 
2 1 1 -0.0256555 0.193111 -6.06873 
20 1 1 -0.765768 -3.1871 -5.46483 
19 1 1 -1.09791 -2.248 -5.53707 
62 1 1 -2.20265 -0.581383 -5.55132 
3 1 1 -0.305556 0.306878 -5.11669 
15 1 1 1.11456 0.00949354 -5.11534 
14 1 1 1.05316 0.994504 -4.95968 
57 1 1 -2.08906 -2.52813 -4.83433 
21 1 1 -0.0116687 -2.90089 -4.87543 
61 1 1 -2.15238 -0.978438 -4.61954 
29 1 1 2.17039 -1.33566 -4.06615 
65 1 1 -1.61046 0.594753 -4.74879 
4 1 1 -0.0507402 1.01518 -4.45058 
13 1 1 1.3658 1.36245 -4.08725 
33 1 1 3.18027 -0.044214 -3.98114 
58 1 1 -2.46891 -2.91638 -3.988 
55 1 1 -1.08491 -3.0954 -4.0444 
60 1 1 -2.93323 -1.61296 -4.55538 
56 1 1 -1.31925 -2.15177 -4.30778 
22 1 1 -0.0594332 -3.14328 -3.915 
25 1 1 1.2208 -2.6839 -3.82131 
26 1 1 0.920004 -1.73736 -3.7779 
30 1 1 2.07872 -0.598152 -3.39077 
66 1 1 -1.12594 0.96689 -3.94723 
5 1 1 0.265491 0.840454 -3.51333 
32 1 1 3.39797 -0.992134 -3.74437 
34 1 1 3.15596 0.449213 -3.10554 
12 1 1 0.913044 2.11974 -3.62075 
11 1 1 1.42309 2.65279 -2.94328 
59 1 1 -2.6145 -1.9792 -3.67197 
23 1 1 -0.00430665 -2.47003 -3.17981 
24 1 1 0.867455 -2.89479 -2.90564 
27 1 1 1.3907 -1.63075 -2.90047 
28 1 1 2.22944 -2.00269 -3.31034 
67 1 1 -0.877055 0.379651 -3.16883 
31 1 1 2.88186 -0.947449 -2.89102 
6 1 1 0.158828 1.6505 -2.91857 
35 1 1 3.61882 -0.184153 -2.49201 
10 1 1 0.866653 3.1735 -2.30873 
54 1 1 -1.19507 -3.51412 -3.1354 
53 1 1 -0.441509 -3.96457 -2.64528 
46 1 1 -2.9255 0.0432474 -2.54276 
45 1 1 -1.96169 -0.197759 -2.63708 
68 1 1 -0.603956 0.788716 -2.29457 
69 1 1 0.240593 0.468271 -1.86 
36 1 1 2.89123 -0.327323 -1.82993 
7 1 1 0.741913 1.66355 -2.10242 
9 1 1 1.32432 2.84092 -1.49262 
51 1 1 -0.917869 -2.74535 -1.81786 
52 1 1 -0.0732714 -3.13331 -2.20731 
50 1 1 -1.21919 -1.81086 -2.03821 
47 1 1 -2.82888 -0.0266203 -1.55699 
44 1 1 -1.28282 -0.250675 -1.89703 
43 1 1 -0.361391 -0.643763 -1.92054 
38 1 1 2.05757 -1.75853 -1.64756 
41 1 1 1.13141 -0.837877 -1.21735 
37 1 1 2.90477 -1.2596 -1.44761 
8 1 1 0.596857 2.19013 -1.25465 
48 1 1 -2.50936 -0.974668 -1.55454 
49 1 1 -1.58147 -1.25875 -1.2785 
39 1 1 1.92008 -1.96417 -0.674792 
42 1 1 0.143205 -0.7838 -1.0551 
40 1 1 1.8106 -0.984204 -0.49076 
70 1 1 0.29861 0.537092 -0.861115 
71 1 1 1.16328 0.238237 -0.437611 
72 1 1 1.15549 -0.334893 0.379244 
73 1 1 2.07388 -0.302175 0.793881 
74 1 1 2.38303 -1.01738 1.41695 
75 1 1 2.66852 -0.534827 2.24398 
76 1 1 2.43712 0.314175 2.71581 
ITEM: TIMESTEP
14000
ITEM: NUMBER OF ATOMS
76
ITEM: BOX BOUNDS pp pp pp
-1.0000000000000000e+01 1.0000000000000000e+01
-1.0000000000000000e+01 1.0000000000000000e+01
-1.2000000000000000e+02 1.2000000000000000e+02
ITEM: ATOMS id mol type xu yu zu 
1 1 1 -1.40192 0.46689 -7.16918 
20 1 1 -1.33302 -2.28239 -6.41945 
18 1 1 -1.04256 -1.01006 -6.86459 
17 1 1 -0.387434 -0.318077 -6.58009 
16 1 1 -0.00195667 0.563872 -6.80875 
2 1 1 -1.03536 1.21236 -6.61038 
21 1 1 -0.484199 -1.99585 -5.97744 
19 1 1 -1.74717 -1.38787 -6.2589 
62 1 1 -2.95281 0.123245 -5.7478 
63 1 1 -2.47169 0.809194 -6.30268 
15 1 1 0.312698 1.0309 -5.98383 
64 1 1 -2.19042 1.63518 -5.82548 
22 1 1 -0.278394 -2.37512 -5.08454 
57 1 1 -2.51289 -1.87833 -5.40578 
56 1 1 -1.67134 -1.49247 -5.01282 
25 1 1 0.945237 -1.78689 -5.20914 
29 1 1 1.69574 -0.315815 -5.43742 
32 1 1 2.93299 0.120202 -5.35018 
3 1 1 -1.08468 1.15723 -5.6143 
33 1 1 2.58896 1.05997 -5.37207 
14 1 1 0.211816 1.9701 -5.65831 
58 1 1 -2.64408 -2.42378 -4.57117 
55 1 1 -1.30513 -2.42983 -4.96846 
24 1 1 0.842197 -2.16465 -4.28477 
23 1 1 -0.101248 -1.81046 -4.28044 
60 1 1 -3.33518 -1.11678 -4.796 
26 1 1 0.588793 -0.897695 -4.94345 
28 1 1 1.98944 -1.0712 -4.83508 
61 1 1 -2.64671 -0.392562 -4.93009 
31 1 1 2.63694 -0.0165745 -4.40667 
30 1 1 1.7113 0.303263 -4.64687 
65 1 1 -2.28049 1.23564 -4.91797 
34 1 1 2.73775 1.41877 -4.44478 
4 1 1 -0.733987 1.78946 -4.91599 
13 1 1 0.695729 2.24542 -4.83109 
54 1 1 -1.15792 -2.9825 -4.13983 
53 1 1 -0.274427 -3.40622 -3.91429 
59 1 1 -2.7837 -1.56404 -4.08049 
27 1 1 1.24775 -0.861495 -4.19028 
67 1 1 -1.17158 0.887286 -3.60292 
35 1 1 3.38474 0.763803 -4.065 
66 1 1 -1.64788 1.54519 -4.19706 
5 1 1 -0.187281 1.52258 -4.11672 
12 1 1 0.309993 2.87114 -4.15597 
52 1 1 0.120818 -2.60768 -3.44046 
38 1 1 2.20615 -1.0857 -3.15972 
37 1 1 3.03361 -0.52424 -3.07765 
45 1 1 -2.04519 0.117745 -2.9417 
36 1 1 2.85301 0.444565 -3.28809 
6 1 1 -0.211562 2.22258 -3.38822 
11 1 1 0.924308 3.35935 -3.53346 
51 1 1 -0.632753 -2.38004 -2.8113 
50 1 1 -1.05258 -1.46557 -2.80067 
39 1 1 2.32522 -1.44108 -2.2286 
43 1 1 -0.288511 -0.234425 -2.68998 
41 1 1 1.34074 -0.349669 -2.38525 
46 1 1 -2.97366 0.228572 -2.59303 
44 1 1 -1.20537 0.0408508 -2.39385 
68 1 1 -0.728769 1.19814 -2.75821 
69 1 1 0.218807 0.920704 -2.58521 
7 1 1 0.548756 2.18859 -2.73476 
10 1 1 0.498026 3.71666 -2.71247 
48 1 1 -2.25022 -0.862719 -1.90629 
49 1 1 -1.26336 -1.07231 -1.89837 
42 1 1 0.420159 -0.435039 -1.99661 
40 1 1 2.18512 -0.516458 -1.86577 
47 1 1 -2.63598 0.0322292 -1.68013 
71 1 1 1.47379 0.602034 -1.46677 
70 1 1 0.511181 0.854334 -1.62814 
8 1 1 0.571388 2.56977 -1.80136 
9 1 1 1.16485 3.32823 -2.08753 
72 1 1 1.71009 -0.0774593 -0.775221 
74 1 1 3.2031 -0.751012 -0.169649 
73 1 1 2.69584 0.0037382 -0.579949 
75 1 1 3.64056 -0.359804 0.639006 
76 1 1 3.46277 0.381228 1.28417 
ITEM: TIMESTEP
16000
ITEM: NUMBER OF ATOMS
76
ITEM: BOX BOUNDS pp pp pp
-1.0000000000000000e+01 1.0000000000000000e+01
-1.0000000000000000e+01 1.0000000000000000e+01
-1.2000000000000000e+02 1.2000000000000000e+02
ITEM: ATOMS id mol type xu yu zu 
1 1 1 1.01162 -1.92515 -9.20657 
18 1 1 0.899385 -2.88173 -7.9918 
17 1 1 1.26573 -1.97349 -7.81896 
63 1 1 -0.313847 -1.56285 -9.55911 
16 1 1 1.80249 -1.23799 -8.2058 
2 1 1 0.988647 -0.931746 -9.08424 
15 1 1 1.53044 -0.3625 -7.80942 
64 1 1 -0.334924 -0.568751 -9.57966 
14 1 1 1.3454 0.533372 -8.21119 
19 1 1 -0.0664489 -3.12216 -7.86758 
62 1 1 -1.11762 -2.01127 -9.15568 
3 1 1 0.275561 -0.51683 -8.5212 
33 1 1 2.78427 0.661362 -6.09592 
4 1 1 0.134056 0.445188 -8.26659 
13 1 1 1.17341 1.30506 -7.60359 
20 1 1 0.241421 -3.80513 -7.2071 
21 1 1 0.596608 -3.09464 -6.60127 
29 1 1 2.01795 -0.778238 -5.90824 
30 1 1 1.56808 0.112786 -5.79803 
32 1 1 2.91289 0.00650178 -5.34985 
65 1 1 -1.05767 -0.491837 -8.89919 
34 1 1 2.30972 1.4452 -5.68224 
12 1 1 0.508928 2.02163 -7.8063 
11 1 1 0.594463 2.91109 -7.35377 
57 1 1 -1.25646 -3.35605 -7.578 
22 1 1 0.102117 -2.91603 -5.76041 
56 1 1 -0.862149 -2.58963 -7.0597 
25 1 1 1.14722 -2.11157 -5.41483 
60 1 1 -2.18018 -2.69481 -8.15892 
26 1 1 0.81008 -1.36484 -5.97789 
28 1 1 1.74012 -1.0201 -4.96803 
61 1 1 -1.50392 -1.94956 -8.22007 
31 1 1 2.04563 0.252487 -4.92098 
35 1 1 2.4513 1.28948 -4.70883 
66 1 1 -1.04555 0.30347 -8.28026 
5 1 1 -0.0355193 0.777479 -7.33396 
6 1 1 -0.463428 1.69299 -7.32817 
10 1 1 -0.228671 3.46412 -7.34901 
58 1 1 -1.97691 -3.44663 -6.88225 
55 1 1 -0.732185 -3.22488 -6.2888 
23 1 1 -0.245131 -2.01301 -5.51391 
24 1 1 0.406143 -2.01274 -4.74488 
59 1 1 -2.31056 -2.54926 -7.17001 
27 1 1 0.788334 -0.770576 -5.17218 
67 1 1 -1.17331 0.194591 -7.28803 
36 1 1 1.50316 1.23269 -4.41552 
7 1 1 -0.352064 2.21349 -6.47793 
9 1 1 -0.207085 3.65065 -6.3739 
54 1 1 -1.24611 -3.23767 -5.42309 
53 1 1 -0.801389 -3.20344 -4.52197 
38 1 1 0.768591 -0.164755 -3.88244 
45 1 1 -2.34494 -0.393814 -7.01662 
43 1 1 -1.27191 -0.0167374 -5.6096 
37 1 1 1.38212 0.593163 -3.6462 
46 1 1 -3.24509 -0.425021 -7.44635 
68 1 1 -1.38302 0.991048 -6.71538 
69 1 1 -0.839313 1.14033 -5.88658 
8 1 1 -0.920294 2.97942 -6.15001 
51 1 1 -1.68798 -1.94497 -4.68999 
52 1 1 -0.740104 -2.19807 -4.45978 
50 1 1 -1.89676 -1.31895 -5.44968 
44 1 1 -2.10932 0.0657275 -6.15369 
42 1 1 -1.24427 0.369824 -4.67524 
41 1 1 -0.300438 0.540729 -4.38237 
70 1 1 -1.27787 1.63365 -5.13148 
71 1 1 -0.712468 1.80272 -4.31413 
39 1 1 0.187763 0.0247684 -3.08608 
48 1 1 -3.30447 -0.768985 -6.00966 
49 1 1 -2.61312 -0.630542 -5.28802 
47 1 1 -3.63573 -0.0455188 -6.61609 
40 1 1 -0.0527121 0.914267 -3.48251 
72 1 1 -1.08358 1.64796 -3.40083 
73 1 1 -0.485822 2.11448 -2.73639 
74 1 1 -0.478296 1.84787 -1.77506 
75 1 1 -0.658413 2.69148 -1.27086 
76 1 1 -1.13761 3.55319 -1.42837 
ITEM: TIMESTEP
18000
ITEM: NUMBER OF ATOMS
76
ITEM: BOX BOUNDS pp pp pp
-1.0000000000000000e+01 1.0000000000000000e+01
-1.0000000000000000e+01 1.0000000000000000e+01
-1.2000000000000000e+02 1.2000000000000000e+02
ITEM: ATOMS id mol type xu yu zu 
1 1 1 0.665347 2.16085 -9.1077 
63 1 1 -0.695783 2.2722 -8.72387 
16 1 1 1.77031 2.09775 -8.17267 
64 1 1 -0.719192 2.91142 -7.96233 
2 1 1 0.692489 2.69617 -8.2621 
14 1 1 1.34964 3.09643 -6.69877 
18 1 1 1.00213 0.647614 -9.10553 
17 1 1 1.40972 1.20191 -8.38747 
62 1 1 -1.29769 1.47142 -8.64421 
3 1 1 0.236651 2.35331 -7.44215 
15 1 1 1.66557 2.2909 -7.19833 
4 1 1 0.201812 2.74012 -6.51507 
33 1 1 3.46357 2.05791 -5.69189 
13 1 1 1.41496 3.09969 -5.70379 
20 1 1 0.673724 -0.688056 -9.20283 
19 1 1 0.147957 0.134339 -8.99143 
29 1 1 2.81381 0.794586 -6.51453 
32 1 1 3.85398 1.14131 -5.78904 
65 1 1 -1.14229 2.26693 -7.33231 
66 1 1 -0.901402 2.32873 -6.35564 
34 1 1 3.1764 2.12358 -4.73066 
12 1 1 0.725094 3.51343 -5.11303 
11 1 1 0.973725 3.77543 -4.17879 
57 1 1 -0.854242 -0.556896 -8.72221 
21 1 1 1.22874 -0.574229 -8.38004 
60 1 1 -1.92403 0.0213967 -8.33611 
61 1 1 -1.31434 0.727984 -7.9547 
26 1 1 1.66213 0.133487 -6.72544 
30 1 1 2.43887 1.15379 -5.65496 
31 1 1 3.20492 0.744682 -5.14253 
35 1 1 3.66399 1.36335 -4.311 
5 1 1 0.386751 2.2313 -5.66898 
6 1 1 -0.00588575 2.68743 -4.85715 
10 1 1 0.211579 3.89143 -3.55502 
55 1 1 0.106162 -1.25521 -7.9846 
22 1 1 1.07715 -1.20567 -7.63053 
56 1 1 -0.294667 -0.333543 -7.91692 
25 1 1 2.17922 -0.650941 -7.0504 
28 1 1 2.89863 -0.114175 -6.08252 
27 1 1 1.93914 -0.0762699 -5.78626 
67 1 1 -0.657379 1.50897 -5.82541 
68 1 1 -0.639852 1.54252 -4.823 
36 1 1 2.88889 0.849665 -3.95946 
7 1 1 0.411022 2.43621 -3.98004 
9 1 1 0.58941 3.31328 -2.84153 
58 1 1 -1.27024 -1.31796 -8.21325 
24 1 1 1.73529 -1.27911 -6.40533 
59 1 1 -1.68272 -0.635381 -7.61048 
23 1 1 0.847667 -0.908209 -6.70551 
46 1 1 -2.64556 0.648119 -5.91116 
45 1 1 -1.65046 0.611199 -5.84535 
43 1 1 -0.135346 0.13808 -4.97708 
37 1 1 3.05555 -0.144088 -3.97242 
69 1 1 0.170119 1.19284 -4.34712 
8 1 1 0.00520045 2.526 -3.06118 
54 1 1 -0.0551278 -2.03138 -7.36389 
53 1 1 0.688792 -2.53394 -6.91112 
52 1 1 0.772362 -1.92403 -6.11148 
50 1 1 -0.663124 -0.97838 -5.74307 
38 1 1 2.39529 -0.626839 -4.55352 
47 1 1 -2.70363 0.180872 -5.03694 
44 1 1 -1.11352 0.3471 -5.03709 
41 1 1 1.2201 -0.119657 -4.05137 
70 1 1 0.040364 0.838439 -3.4179 
71 1 1 0.866408 0.515639 -2.93856 
51 1 1 -0.193028 -1.86399 -5.82873 
48 1 1 -2.17604 -0.621691 -5.31699 
49 1 1 -1.26796 -0.85958 -4.94728 
39 1 1 2.14711 -1.24355 -3.8015 
42 1 1 0.233945 -0.282183 -4.13433 
40 1 1 1.78152 -0.461491 -3.2907 
72 1 1 0.854903 -0.34471 -2.43313 
73 1 1 1.65619 -0.35965 -1.82145 
74 1 1 2.01419 -1.21916 -1.46316 
75 1 1 2.03437 -1.09808 -0.471559 
76 1 1 1.53401 -0.572825 0.21454 
ITEM: TIMESTEP
20000
ITEM: NUMBER OF ATOMS
76
ITEM: BOX BOUNDS pp pp pp
-1.0000000000000000e+01 1.0000000000000000e+01
-1.0000000000000000e+01 1.0000000000000000e+01
-1.2000000000000000e+02 1.2000000000000000e+02
ITEM: ATOMS id mol type xu yu zu 
20 1 1 -0.18051 -1.00926 -9.00255 
19 1 1 -0.764055 -0.289593 -8.62972 
18 1 1 -0.105739 0.367592 -9.00495 
1 1 1 -0.71516 1.78838 -8.88973 
57 1 1 -1.47684 -1.14047 -8.06171 
21 1 1 0.570011 -0.748019 -8.3972 
62 1 1 -2.26106 0.769908 -7.83304 
17 1 1 0.38899 1.02737 -8.44915 
63 1 1 -1.8827 1.66367 -8.09368 
16 1 1 0.616277 1.98543 -8.35338 
58 1 1 -1.55615 -1.93664 -7.45252 
55 1 1 -0.217323 -1.60441 -7.67127 
22 1 1 0.786279 -1.35419 -7.64271 
56 1 1 -0.748939 -0.771921 -7.47364 
60 1 1 -2.46402 -0.7525 -7.35253 
61 1 1 -1.91617 0.0758773 -7.17899 
64 1 1 -1.79173 2.32834 -7.35949 
2 1 1 -0.530666 2.36529 -8.09256 
53 1 1 0.909133 -2.68979 -6.84664 
54 1 1 -0.0219902 -2.36147 -7.03688 
59 1 1 -1.88494 -1.31118 -6.74535 
23 1 1 0.803412 -1.05426 -6.69058 
25 1 1 1.88359 -0.571429 -7.43774 
26 1 1 1.35096 0.118923 -6.96022 
65 1 1 -1.86264 1.65186 -6.63242 
3 1 1 -0.631683 1.98899 -7.17285 
15 1 1 0.785165 2.20918 -7.39472 
52 1 1 1.11718 -2.0317 -6.11041 
24 1 1 1.79483 -1.23498 -6.68967 
28 1 1 2.74962 0.143452 -6.7439 