LAMMPS (29 Mar 2019)
OMP_NUM_THREADS environment is not set. Defaulting to 1 thread. (src/comm.cpp:88)
  using 1 OpenMP thread(s) per MPI task
OMP_NUM_THREADS environment is not set. Defaulting to 1 thread. (src/comm.cpp:88)
  using 1 OpenMP thread(s) per MPI task
Reading data file ...
  orthogonal box = (-8 -8 -110) to (8 8 110)
  1 by 1 by 1 MPI processor grid
  reading atoms ...
  7039 atoms
Finding 1-2 1-3 1-4 neighbors ...
  special bond factors lj:   0          0          0         
  special bond factors coul: 0          0          0         
  0 = max # of 1-2 neighbors
  0 = max # of 1-3 neighbors
  0 = max # of 1-4 neighbors
  1 = max # of special neighbors
  special bonds CPU = 0.00164175 secs
  read_data CPU = 0.0102298 secs
76 atoms in group protein
6963 atoms in group pore
1 rigid bodies with 76 atoms
Neighbor list info ...
  update every 1 steps, delay 10 steps, check yes
  max neighbors/atom: 2000, page size: 100000
  master list distance cutoff = 5.3
  ghost atom cutoff = 5.3
  binsize = 2.65, bins = 7 7 84
  1 neighbor lists, perpetual/occasional/extra = 1 0 0
  (1) pair lj/cut/coul/debye, perpetual
      attributes: half, newton on
      pair build: half/bin/newton
      stencil: half/bin/3d/newton
      bin: standard
Setting up Verlet run ...
  Unit style    : lj
  Current step  : 0
  Time step     : 0.02
Per MPI rank memory allocation (min/avg/max) = 14.41 | 14.41 | 14.41 Mbytes
Step Temp E_pair E_mol TotEng Press 
       0 8.3475198e-05            0            0 0.00012387866 0.0064932359 
    2000 0.00033634113            0            0 0.00049913617 3.910051e-05 
Loop time of 1.58869 on 1 procs for 2000 steps with 7039 atoms

Performance: 2175373.222 tau/day, 1258.897 timesteps/s
100.0% CPU use with 1 MPI tasks x 1 OpenMP threads

MPI task timing breakdown:
Section |  min time  |  avg time  |  max time  |%varavg| %total
---------------------------------------------------------------
Pair    | 1.0731     | 1.0731     | 1.0731     |   0.0 | 67.55
Bond    | 0.00022078 | 0.00022078 | 0.00022078 |   0.0 |  0.01
Neigh   | 0.11227    | 0.11227    | 0.11227    |   0.0 |  7.07
Comm    | 0.18198    | 0.18198    | 0.18198    |   0.0 | 11.45
Output  | 6.9857e-05 | 6.9857e-05 | 6.9857e-05 |   0.0 |  0.00
Modify  | 0.12164    | 0.12164    | 0.12164    |   0.0 |  7.66
Other   |            | 0.09937    |            |       |  6.25

Nlocal:    7039 ave 7039 max 7039 min
Histogram: 1 0 0 0 0 0 0 0 0 0
Nghost:    11371 ave 11371 max 11371 min
Histogram: 1 0 0 0 0 0 0 0 0 0
Neighs:    7147 ave 7147 max 7147 min
Histogram: 1 0 0 0 0 0 0 0 0 0

Total # of neighbors = 7147
Ave neighs/atom = 1.01534
Ave special neighs/atom = 0
Neighbor list builds = 9
Dangerous builds = 0
Setting up Verlet run ...
  Unit style    : lj
  Current step  : 2000
  Time step     : 0.02
Per MPI rank memory allocation (min/avg/max) = 15.41 | 15.41 | 15.41 Mbytes
Step Temp Press PotEng E_vdwl E_coul KinEng TotEng Enthalpy v_zc 
    2000 0.00033634113 4.1588772e-05            0            0            0 0.00049913617 0.00049913617 0.00083189361 -7.0119349e-17 
   10000 7.3390144e-05 5.5133771e-05            0            0            0 0.00010891227 0.00010891227 0.00055004509  0.068855993 
   20000 0.00020464619 -0.00099096278            0            0            0 0.00030369856 0.00030369856  -0.00762513    0.3718802 
   30000 0.00018045688 0.00013353227 1.7428528e-05 1.7428528e-05            0 0.00026780119 0.00028522972 0.0013536396 -0.0089336601 
   40000 0.00034570431 0.00087223598            0            0            0 0.00051303128 0.00051303128 0.0074919105   0.31759027 
   50000 0.00030493435 -0.00092495507            0            0            0 0.00045252795 0.00045252795 -0.0069481638  0.024808814 
   60000 9.9719465e-05 0.0014184734            0            0            0 0.00014798544 0.00014798544  0.011497385   0.09348071 
   70000 0.00026803445 -0.00036835278            0            0            0 0.00039776785 0.00039776785 -0.002549473 -0.023302063 
   80000 6.6395202e-05 0.00038293325            0            0            0 9.8531649e-05 9.8531649e-05 0.0031624329  -0.48238152 
   90000 0.00014664283 -0.0033023258 9.6341706e-06 9.6341706e-06            0 0.00021762055 0.00022725472 -0.026195104  -0.55738295 
  100000 0.00048978727 -0.007080914 3.5342849e-06 3.5342849e-06            0 0.00072685293 0.00073038722 -0.055924972  -0.68083682 
  102000 0.00026309824 0.0035549736            0            0            0 0.00039044243 0.00039044243  0.028834272  -0.93002451 
Loop time of 108.918 on 1 procs for 100000 steps with 7039 atoms

Performance: 1586507.684 tau/day, 918.118 timesteps/s
100.0% CPU use with 1 MPI tasks x 1 OpenMP threads

MPI task timing breakdown:
Section |  min time  |  avg time  |  max time  |%varavg| %total
---------------------------------------------------------------
Pair    | 58.854     | 58.854     | 58.854     |   0.0 | 54.04
Bond    | 0.013917   | 0.013917   | 0.013917   |   0.0 |  0.01
Neigh   | 11.727     | 11.727     | 11.727     |   0.0 | 10.77
Comm    | 11.086     | 11.086     | 11.086     |   0.0 | 10.18
Output  | 0.0036433  | 0.0036433  | 0.0036433  |   0.0 |  0.00
Modify  | 20.897     | 20.897     | 20.897     |   0.0 | 19.19
Other   |            | 6.337      |            |       |  5.82

Nlocal:    7039 ave 7039 max 7039 min
Histogram: 1 0 0 0 0 0 0 0 0 0
Nghost:    11371 ave 11371 max 11371 min
Histogram: 1 0 0 0 0 0 0 0 0 0
Neighs:    7025 ave 7025 max 7025 min
Histogram: 1 0 0 0 0 0 0 0 0 0

Total # of neighbors = 7025
Ave neighs/atom = 0.998011
Ave special neighs/atom = 0
Neighbor list builds = 857
Dangerous builds = 0
Setting up Verlet run ...
  Unit style    : lj
  Current step  : 102000
  Time step     : 0.02
Per MPI rank memory allocation (min/avg/max) = 16.91 | 16.91 | 16.91 Mbytes
Step Temp Press PotEng E_vdwl E_coul KinEng TotEng Enthalpy v_zc 
  102000 0.00026309824 3.2532247e-05            0            0            0 0.00039044243 0.00039044243 0.00065073738  -0.93002451 
  110000 0.00015991466 -0.001457186            0            0            0 0.00023731617 0.00023731617 -0.011421828   -1.1068964 
  120000 0.0004484977 -0.0027572887            0            0            0 0.00066557848 0.00066557848 -0.021395864  -0.87757924 
  130000 0.00033002025 0.0032577852            0            0            0 0.00048975586 0.00048975586   0.02655574   -1.2674962 
  140000 0.00060402938 0.0026417901            0            0            0 0.00089639024 0.00089639024  0.022033714   -1.4136191 
  150000 0.00042263456 0.00060829961            0            0            0 0.00062719713 0.00062719713 0.0054942854   -1.3715144 
  160000 0.00038317424 -0.0062039967 4.5617273e-05 4.5617273e-05            0 0.00056863733 0.0006142546  -0.04902477   -1.0655056 
  170000 0.00050633484 -0.0021214757            0            0            0 0.00075140983 0.00075140983 -0.016222807  -0.84376011 
  180000 0.00016341702 0.0068924254 5.1174756e-07 5.1174756e-07            0 0.00024251373 0.00024302548  0.055390262   -1.0903092 
  190000 0.00031210021 -0.0039140831            0            0            0 0.00046316221 0.00046316221 -0.030853951    -1.146131 
  200000 0.00028505531 -0.0020807958            0            0            0 0.0004230271 0.0004230271 -0.016225705   -1.1865544 
  202000 0.00019480376 -0.010462739 4.7426949e-05 4.7426949e-05            0 0.00028909221 0.00033651916 -0.083377282   -1.1879105 
Loop time of 116.499 on 1 procs for 100000 steps with 7039 atoms

Performance: 1483277.779 tau/day, 858.378 timesteps/s
100.0% CPU use with 1 MPI tasks x 1 OpenMP threads

MPI task timing breakdown:
Section |  min time  |  avg time  |  max time  |%varavg| %total
---------------------------------------------------------------
Pair    | 59.848     | 59.848     | 59.848     |   0.0 | 51.37
Bond    | 0.016278   | 0.016278   | 0.016278   |   0.0 |  0.01
Neigh   | 12.568     | 12.568     | 12.568     |   0.0 | 10.79
Comm    | 12.804     | 12.804     | 12.804     |   0.0 | 10.99
Output  | 0.0039804  | 0.0039804  | 0.0039804  |   0.0 |  0.00
Modify  | 23.317     | 23.317     | 23.317     |   0.0 | 20.01
Other   |            | 7.941      |            |       |  6.82

Nlocal:    7039 ave 7039 max 7039 min
Histogram: 1 0 0 0 0 0 0 0 0 0
Nghost:    11368 ave 11368 max 11368 min
Histogram: 1 0 0 0 0 0 0 0 0 0
Neighs:    7100 ave 7100 max 7100 min
Histogram: 1 0 0 0 0 0 0 0 0 0

Total # of neighbors = 7100
Ave neighs/atom = 1.00867
Ave special neighs/atom = 0
Neighbor list builds = 843
Dangerous builds = 0
Setting up Verlet run ...
  Unit style    : lj
  Current step  : 202000
  Time step     : 0.02
Per MPI rank memory allocation (min/avg/max) = 16.91 | 16.91 | 16.91 Mbytes
Step Temp Press PotEng E_vdwl E_coul KinEng TotEng Enthalpy v_zc 
  202000 0.00019480376 0.00034505929 4.7426949e-05 4.7426949e-05            0 0.00028909221 0.00033651916 0.0030973856   -1.1879105 
  210000 0.00015503001 -0.0033551378            0            0            0 0.00023006726 0.00023006726 -0.026614848   -1.7457008 
  220000 0.00031138614 -5.0797896e-05            0            0            0 0.00046210252 0.00046210252 5.566162e-05  -0.86376576 
  230000 0.00018114609 -0.00039815977            0            0            0 0.00026882399 0.00026882399 -0.0029169067  -0.81868838 
  240000 0.00045003086 -0.0048989327 9.223929e-06 9.223929e-06            0 0.00066785373 0.00067707766 -0.038519952  -0.90664104 
  250000 8.0820894e-05 -0.0024763875            0            0            0 0.00011993963 0.00011993963 -0.019693975  -0.80525811 
  260000 0.00026037412 0.0027439841 0.00016451093 0.00016451093            0 0.00038639978 0.00055091071  0.022505902   -0.5817223 
  270000 0.00034395561 -0.0017522818            0            0            0 0.00051043619 0.00051043619 -0.013509809  -0.53172229 
  280000 0.00031106003 -0.0024911234 5.5017812e-06 5.5017812e-06            0 0.00046161857 0.00046712035 -0.019464698  -0.42935391 
  290000 0.00041438608 -0.00065855993            0            0            0 0.00061495625 0.00061495625 -0.0046542716 -0.086819868 
  300000 0.00025794539 0.0005382676 5.2436675e-06 5.2436675e-06            0 0.00038279551 0.00038803918 0.0046947918  -0.35944261 
  302000 0.00032443615 0.00017465407 3.0657492e-05 3.0657492e-05            0 0.00048146896 0.00051212645 0.0019095575   0.04259465 
Loop time of 109.492 on 1 procs for 100000 steps with 7039 atoms

Performance: 1578197.300 tau/day, 913.309 timesteps/s
100.0% CPU use with 1 MPI tasks x 1 OpenMP threads

MPI task timing breakdown:
Section |  min time  |  avg time  |  max time  |%varavg| %total
---------------------------------------------------------------
Pair    | 58.764     | 58.764     | 58.764     |   0.0 | 53.67
Bond    | 0.013691   | 0.013691   | 0.013691   |   0.0 |  0.01
Neigh   | 11.451     | 11.451     | 11.451     |   0.0 | 10.46
Comm    | 11.4       | 11.4       | 11.4       |   0.0 | 10.41
Output  | 0.0038283  | 0.0038283  | 0.0038283  |   0.0 |  0.00
Modify  | 21.287     | 21.287     | 21.287     |   0.0 | 19.44
Other   |            | 6.573      |            |       |  6.00

Nlocal:    7039 ave 7039 max 7039 min
Histogram: 1 0 0 0 0 0 0 0 0 0
Nghost:    11367 ave 11367 max 11367 min
Histogram: 1 0 0 0 0 0 0 0 0 0
Neighs:    7079 ave 7079 max 7079 min
Histogram: 1 0 0 0 0 0 0 0 0 0

Total # of neighbors = 7079
Ave neighs/atom = 1.00568
Ave special neighs/atom = 0
Neighbor list builds = 821
Dangerous builds = 0
Setting up Verlet run ...
  Unit style    : lj
  Current step  : 302000
  Time step     : 0.02
Per MPI rank memory allocation (min/avg/max) = 16.91 | 16.91 | 16.91 Mbytes
Step Temp Press PotEng E_vdwl E_coul KinEng TotEng Enthalpy v_zc 
  302000 0.00032443615 0.00030437697 3.0657492e-05 3.0657492e-05            0 0.00048146896 0.00051212645 0.0029474882   0.04259465 
  310000 0.00040708152 0.0014429139            0            0            0 0.00060411615 0.00060411615  0.012149067 -0.026371709 
  320000 0.0007601651 -0.0017789789            0            0            0 0.0011280984 0.0011280984 -0.013105754  -0.31461878 
  330000 0.00042176244 -0.0018199962            0            0            0 0.00062590289 0.00062590289 -0.013936135  -0.39089503 
  340000 0.00051907817 -0.00089707275            0            0            0 0.00077032115 0.00077032115 -0.0064072804 -0.051129577 
  350000 7.8061153e-05 0.0012322469            0            0            0 0.00011584413 0.00011584413 0.0099752201 -0.033626113 
  360000 0.00039106531 0.00039258046            0            0            0 0.00058034781 0.00058034781 0.0037214377  -0.13805218 
  370000 0.00033083298 0.00040986459            0            0            0 0.00049096198 0.00049096198 0.0037703445   -0.1317365 
  380000 0.00017384633 0.0020957209            0            0            0 0.00025799101 0.00025799101   0.01702614  0.023933718 
  390000 0.00011565715 -0.0020787146            0            0            0 0.00017163724 0.00017163724 -0.016460442   0.12143992 
  400000 7.4919822e-05 0.00070696843            0            0            0 0.00011118234 0.00011118234 0.0057677333  0.069346651 
  402000 0.00041196609 -0.0024233878            0            0            0 0.00061136494 0.00061136494 -0.018778492   -0.1168562 
Loop time of 110.749 on 1 procs for 100000 steps with 7039 atoms

Performance: 1560279.392 tau/day, 902.939 timesteps/s
100.0% CPU use with 1 MPI tasks x 1 OpenMP threads

MPI task timing breakdown:
Section |  min time  |  avg time  |  max time  |%varavg| %total
---------------------------------------------------------------
Pair    | 59.509     | 59.509     | 59.509     |   0.0 | 53.73
Bond    | 0.01409    | 0.01409    | 0.01409    |   0.0 |  0.01
Neigh   | 11.452     | 11.452     | 11.452     |   0.0 | 10.34
Comm    | 11.546     | 11.546     | 11.546     |   0.0 | 10.42
Output  | 0.0038817  | 0.0038817  | 0.0038817  |   0.0 |  0.00
Modify  | 21.571     | 21.571     | 21.571     |   0.0 | 19.48
Other   |            | 6.654      |            |       |  6.01

Nlocal:    7039 ave 7039 max 7039 min
Histogram: 1 0 0 0 0 0 0 0 0 0
Nghost:    11365 ave 11365 max 11365 min
Histogram: 1 0 0 0 0 0 0 0 0 0
Neighs:    7108 ave 7108 max 7108 min
Histogram: 1 0 0 0 0 0 0 0 0 0

Total # of neighbors = 7108
Ave neighs/atom = 1.0098
Ave special neighs/atom = 0
Neighbor list builds = 811
Dangerous builds = 0
Setting up Verlet run ...
  Unit style    : lj
  Current step  : 402000
  Time step     : 0.02
Per MPI rank memory allocation (min/avg/max) = 16.91 | 16.91 | 16.91 Mbytes
Step Temp Press PotEng E_vdwl E_coul KinEng TotEng Enthalpy v_zc 
  402000 0.00041196609 5.0939841e-05            0            0            0 0.00061136494 0.00061136494 0.0010189416   -0.1168562 
  410000 0.00016998048  0.003483541            0            0            0 0.00025225403 0.00025225403  0.028124541   0.15055273 
  420000 0.00035847146 -0.0010037448            0            0            0 0.00053197795 0.00053197795 -0.0074991208  -0.32608469 
  430000 0.00035694096 0.0033373364 0.0001488991 0.0001488991            0 0.00052970667 0.00067860577   0.02738109  -0.37198908 
  440000 0.00010522622 0.00030566607            0            0            0 0.00015615757 0.00015615757 0.0026018335 -0.015233026 
  450000 0.00023386676 -0.0010014774            0            0            0 0.00034706239 0.00034706239 -0.0076658947   0.11879421 
  460000 0.00015278372 -0.0006177037            0            0            0 0.00022673373 0.00022673373 -0.0047155979   0.15529899 
  470000 0.00039531463 0.0011447591            0            0            0 0.00058665388 0.00058665388 0.0097460277  -0.19389672 
  480000 0.00024246516 0.0012260733 2.7816148e-05 2.7816148e-05            0 0.00035982257 0.00038763872  0.010197619  -0.37257595 
  490000 0.00026578761  0.002295626            0            0            0 0.00039443349 0.00039443349   0.01876205  -0.15109821 
  500000 0.00013156806 -0.00042304661 4.594697e-05 4.594697e-05            0 0.00019524932 0.00024119629 -0.0031436574   -0.1557131 
  502000 0.00031176729 0.00077023338 1.8719268e-06 1.8719268e-06            0 0.00046266815 0.00046454008 0.0066272825 -0.086026191 
Loop time of 111.509 on 1 procs for 100000 steps with 7039 atoms

Performance: 1549647.877 tau/day, 896.787 timesteps/s
100.0% CPU use with 1 MPI tasks x 1 OpenMP threads

MPI task timing breakdown:
Section |  min time  |  avg time  |  max time  |%varavg| %total
---------------------------------------------------------------
Pair    | 60.252     | 60.252     | 60.252     |   0.0 | 54.03
Bond    | 0.014257   | 0.014257   | 0.014257   |   0.0 |  0.01
Neigh   | 11.795     | 11.795     | 11.795     |   0.0 | 10.58
Comm    | 11.486     | 11.486     | 11.486     |   0.0 | 10.30
Output  | 0.003974   | 0.003974   | 0.003974   |   0.0 |  0.00
Modify  | 21.302     | 21.302     | 21.302     |   0.0 | 19.10
Other   |            | 6.656      |            |       |  5.97

Nlocal:    7039 ave 7039 max 7039 min
Histogram: 1 0 0 0 0 0 0 0 0 0
Nghost:    11374 ave 11374 max 11374 min
Histogram: 1 0 0 0 0 0 0 0 0 0
Neighs:    7203 ave 7203 max 7203 min
Histogram: 1 0 0 0 0 0 0 0 0 0

Total # of neighbors = 7203
Ave neighs/atom = 1.0233
Ave special neighs/atom = 0
Neighbor list builds = 842
Dangerous builds = 0
Setting up Verlet run ...
  Unit style    : lj
  Current step  : 502000
  Time step     : 0.02
Per MPI rank memory allocation (min/avg/max) = 16.91 | 16.91 | 16.91 Mbytes
Step Temp Press PotEng E_vdwl E_coul KinEng TotEng Enthalpy v_zc 
  502000 0.00031176729 8.7198161e-05 1.8719268e-06 1.8719268e-06            0 0.00046266815 0.00046454008 0.0011622245 -0.086026191 
  510000 0.00021533916 -0.001467827            0            0            0 0.0003195671 0.0003195671 -0.011424717  -0.16178941 
  520000 0.0002090679 -0.0003145671 3.1530754e-05 3.1530754e-05            0 0.00031026045 0.0003417912 -0.0021751031  -0.39108555 
  530000 0.00033129346 -0.0025650097            0            0            0 0.00049164533 0.00049164533 -0.020031347  -0.76971464 
  540000 0.00049315492 -0.00025629169            0            0            0 0.00073185059 0.00073185059 -0.0013187742   -0.5548649 
  550000 0.0003293004 -0.00020894826            0            0            0 0.00048868759 0.00048868759 -0.001183136  -0.78394994 
  560000 0.00038521987 -0.0045914307 1.6698743e-05 1.6698743e-05            0 0.00057167308 0.00058837182 -0.036148292  -0.67735584 
  570000 6.5959757e-05 0.0018560668            0            0            0 9.7885441e-05 9.7885441e-05  0.014948529  -0.45943962 
  580000 9.3934487e-05 -0.0010220689            0            0            0 0.00013940043 0.00013940043 -0.0080383125   -0.9187772 
  590000 0.00020272217 0.0030819336 2.8493916e-05 2.8493916e-05            0 0.00030084327 0.00032933719  0.024988308  -0.59706029 
  600000 0.00027072621 0.0012632515            0            0            0 0.00040176247 0.00040176247   0.01050921    -0.223503 
  602000 0.00017062945 -0.0047841235            0            0            0 0.0002532171 0.0002532171 -0.038025208  -0.45529015 
Loop time of 113.508 on 1 procs for 100000 steps with 7039 atoms

Performance: 1522354.252 tau/day, 880.992 timesteps/s
100.0% CPU use with 1 MPI tasks x 1 OpenMP threads

MPI task timing breakdown:
Section |  min time  |  avg time  |  max time  |%varavg| %total
---------------------------------------------------------------
Pair    | 60.159     | 60.159     | 60.159     |   0.0 | 53.00
Bond    | 0.014793   | 0.014793   | 0.014793   |   0.0 |  0.01
Neigh   | 12.313     | 12.313     | 12.313     |   0.0 | 10.85
Comm    | 11.945     | 11.945     | 11.945     |   0.0 | 10.52
Output  | 0.0037615  | 0.0037615  | 0.0037615  |   0.0 |  0.00
Modify  | 21.96      | 21.96      | 21.96      |   0.0 | 19.35
Other   |            | 7.112      |            |       |  6.27

Nlocal:    7039 ave 7039 max 7039 min
Histogram: 1 0 0 0 0 0 0 0 0 0
Nghost:    11376 ave 11376 max 11376 min
Histogram: 1 0 0 0 0 0 0 0 0 0
Neighs:    7187 ave 7187 max 7187 min
Histogram: 1 0 0 0 0 0 0 0 0 0

Total # of neighbors = 7187
Ave neighs/atom = 1.02103
Ave special neighs/atom = 0
Neighbor list builds = 864
Dangerous builds = 0
Setting up Verlet run ...
  Unit style    : lj
  Current step  : 602000
  Time step     : 0.02
Per MPI rank memory allocation (min/avg/max) = 16.91 | 16.91 | 16.91 Mbytes
Step Temp Press PotEng E_vdwl E_coul KinEng TotEng Enthalpy v_zc 
  602000 0.00017062945 2.1098428e-05            0            0            0 0.0002532171 0.0002532171 0.00042202851  -0.45529015 
  610000 0.00020557422 -0.001405721            0            0            0 0.00030507577 0.00030507577  -0.01094229  -0.28825164 
  620000 0.00019445631 -0.00032939347            0            0            0 0.00028857658 0.00028857658 -0.0023469455  -0.30791904 
  630000 0.00020110431 0.0031800781            0            0            0 0.00029844234 0.00029844234  0.025742681  -0.25841803 
  640000 0.00025913859 -0.0012886226            0            0            0 0.00038456623 0.00038456623 -0.0099258794    0.2050937 
  650000 0.00045431916 -0.0063959562            0            0            0 0.00067421763 0.00067421763 -0.050500702   0.88668087 
  660000 0.00033176321 -0.00036362885            0            0            0 0.00049234245 0.00049234245 -0.0024171016    1.0371495 
  670000 0.00031573387 -0.00057296851            0            0            0 0.00046855463 0.00046855463 -0.0041158446    1.3482874 
  680000 0.00045367785 0.0084443074 5.6672758e-05 5.6672758e-05            0 0.00067326593 0.00072993869  0.068293995     1.684992 
  690000 0.00023709379 0.0046868679            0            0            0 0.00035185136 0.00035185136  0.037852121     1.751831 
  700000 0.00054522817 -0.0067650603            0            0            0 0.00080912821 0.00080912821 -0.053319043    2.0492037 
  702000 0.00031463687 -0.0021268844            0            0            0 0.00046692666 0.00046692666 -0.016550566    2.1397689 
Loop time of 119.099 on 1 procs for 100000 steps with 7039 atoms

Performance: 1450896.682 tau/day, 839.639 timesteps/s
100.0% CPU use with 1 MPI tasks x 1 OpenMP threads

MPI task timing breakdown:
Section |  min time  |  avg time  |  max time  |%varavg| %total
---------------------------------------------------------------
Pair    | 61.695     | 61.695     | 61.695     |   0.0 | 51.80
Bond    | 0.016599   | 0.016599   | 0.016599   |   0.0 |  0.01
Neigh   | 12.408     | 12.408     | 12.408     |   0.0 | 10.42
Comm    | 13.064     | 13.064     | 13.064     |   0.0 | 10.97
Output  | 0.0040693  | 0.0040693  | 0.0040693  |   0.0 |  0.00
Modify  | 23.609     | 23.609     | 23.609     |   0.0 | 19.82
Other   |            | 8.302      |            |       |  6.97

Nlocal:    7039 ave 7039 max 7039 min
Histogram: 1 0 0 0 0 0 0 0 0 0
Nghost:    11370 ave 11370 max 11370 min
Histogram: 1 0 0 0 0 0 0 0 0 0
Neighs:    7119 ave 7119 max 7119 min
Histogram: 1 0 0 0 0 0 0 0 0 0

Total # of neighbors = 7119
Ave neighs/atom = 1.01137
Ave special neighs/atom = 0
Neighbor list builds = 822
Dangerous builds = 0
Setting up Verlet run ...
  Unit style    : lj
  Current step  : 702000
  Time step     : 0.02
Per MPI rank memory allocation (min/avg/max) = 16.91 | 16.91 | 16.91 Mbytes
Step Temp Press PotEng E_vdwl E_coul KinEng TotEng Enthalpy v_zc 
  702000 0.00031463687 3.8905028e-05            0            0            0 0.00046692666 0.00046692666 0.00077821111    2.1397689 
  710000 0.00046468138 0.0030121746            0            0            0 0.00068959535 0.00068959535  0.024790416    1.5584889 
  720000 0.00015535287 0.0016741687            0            0            0 0.00023054639 0.00023054639  0.013625799    1.1805189 
  730000 0.0002113931 0.0029190647 7.9791966e-05 7.9791966e-05            0 0.00031371109 0.00039350305  0.023749338    1.1123515 
  740000 8.885304e-05 -0.00099384035            0            0            0 0.00013185948 0.00013185948 -0.0078199928   0.56353641 
  750000 0.00022761091 0.0024386857            0            0            0 0.00033777861 0.00033777861  0.019850036   0.53975934 
  760000 5.5903239e-05 -0.0068981548            0            0            0 8.2961392e-05 8.2961392e-05 -0.055110117    0.9947831 
  770000 0.00037281139 0.0015977403 8.5098087e-06 8.5098087e-06            0 0.00055325867 0.00056176848  0.013345507   0.93450345 
  780000 0.00032595699 0.0017335747 1.0360508e-05 1.0360508e-05            0 0.00048372591 0.00049408642  0.014364654     1.210548 
  790000 0.00021630151 -0.0073751657            0            0            0 0.00032099525 0.00032099525 -0.058688712    1.2493877 
  800000 9.8027529e-05 -0.0050261803            0            0            0 0.00014547458 0.00014547458 -0.040069681    1.2525888 
  802000 0.00025636556 -0.0086338446 5.5644739e-05 5.5644739e-05            0 0.00038045101 0.00043609575 -0.068644473    1.5949076 
Loop time of 127.994 on 1 procs for 100000 steps with 7039 atoms

Performance: 1350068.269 tau/day, 781.290 timesteps/s
100.0% CPU use with 1 MPI tasks x 1 OpenMP threads

MPI task timing breakdown:
Section |  min time  |  avg time  |  max time  |%varavg| %total
---------------------------------------------------------------
Pair    | 63.818     | 63.818     | 63.818     |   0.0 | 49.86
Bond    | 0.020899   | 0.020899   | 0.020899   |   0.0 |  0.02
Neigh   | 13.529     | 13.529     | 13.529     |   0.0 | 10.57
Comm    | 14.901     | 14.901     | 14.901     |   0.0 | 11.64
Output  | 0.0046132  | 0.0046132  | 0.0046132  |   0.0 |  0.00
Modify  | 26.001     | 26.001     | 26.001     |   0.0 | 20.31
Other   |            | 9.718      |            |       |  7.59

Nlocal:    7039 ave 7039 max 7039 min
Histogram: 1 0 0 0 0 0 0 0 0 0
Nghost:    11378 ave 11378 max 11378 min
Histogram: 1 0 0 0 0 0 0 0 0 0
Neighs:    7128 ave 7128 max 7128 min
Histogram: 1 0 0 0 0 0 0 0 0 0

Total # of neighbors = 7128
Ave neighs/atom = 1.01264
Ave special neighs/atom = 0
Neighbor list builds = 816
Dangerous builds = 0
Setting up Verlet run ...
  Unit style    : lj
  Current step  : 802000
  Time step     : 0.02
Per MPI rank memory allocation (min/avg/max) = 16.91 | 16.91 | 16.91 Mbytes
Step Temp Press PotEng E_vdwl E_coul KinEng TotEng Enthalpy v_zc 
  802000 0.00025636556 0.00038884206 5.5644739e-05 5.5644739e-05            0 0.00038045101 0.00043609575 0.0035472741    1.5949076 
  810000 0.00049723149 0.0021195894            0            0            0 0.0007379003 0.0007379003  0.017697025    1.3680392 
  820000 0.00070040084 0.0024984146            0            0            0 0.0010394072 0.0010394072  0.021029564    2.1646248 
  830000 0.0003576283 0.0032403212            0            0            0 0.0005307267 0.0005307267  0.026456979    1.9623602 
  840000 0.00022573278 0.0024955698 8.3716854e-05 8.3716854e-05            0 0.00033499142 0.00041870828  0.020386103    1.6171034 
  850000 0.00018484932  0.007969947 2.1793169e-07 2.1793169e-07            0 0.00027431965 0.00027453758  0.064043172    1.9918563 
  860000 0.00016581364 0.0073526307            0            0            0 0.00024607036 0.00024607036  0.059075473    2.3164289 
  870000 0.00032784288 -0.0085675703 3.1498919e-05 3.1498919e-05            0 0.00048652461 0.00051802353 -0.068032276     2.320168 
  880000 0.0003787327  0.013442642            0            0            0  0.000562046  0.000562046   0.10811846    2.4743505 
  890000 0.00033591756 -0.0049811954            0            0            0 0.00049850757 0.00049850757 -0.039356717    2.0993052 
  900000 9.0662999e-05 0.0030505681            0            0            0 0.00013454549 0.00013454549  0.024542557    1.7513094 
  902000 0.00021751335 -0.0062453872            0            0            0 0.00032279364 0.00032279364 -0.049647402    1.7938201 
Loop time of 129.505 on 1 procs for 100000 steps with 7039 atoms

Performance: 1334308.025 tau/day, 772.169 timesteps/s
100.0% CPU use with 1 MPI tasks x 1 OpenMP threads

MPI task timing breakdown:
Section |  min time  |  avg time  |  max time  |%varavg| %total
---------------------------------------------------------------
Pair    | 65.212     | 65.212     | 65.212     |   0.0 | 50.35
Bond    | 0.021116   | 0.021116   | 0.021116   |   0.0 |  0.02
Neigh   | 13.862     | 13.862     | 13.862     |   0.0 | 10.70
Comm    | 14.842     | 14.842     | 14.842     |   0.0 | 11.46
Output  | 0.004395   | 0.004395   | 0.004395   |   0.0 |  0.00
Modify  | 26.186     | 26.186     | 26.186     |   0.0 | 20.22
Other   |            | 9.377      |            |       |  7.24

Nlocal:    7039 ave 7039 max 7039 min
Histogram: 1 0 0 0 0 0 0 0 0 0
Nghost:    11363 ave 11363 max 11363 min
Histogram: 1 0 0 0 0 0 0 0 0 0
Neighs:    7126 ave 7126 max 7126 min
Histogram: 1 0 0 0 0 0 0 0 0 0

Total # of neighbors = 7126
Ave neighs/atom = 1.01236
Ave special neighs/atom = 0
Neighbor list builds = 817
Dangerous builds = 0
Setting up Verlet run ...
  Unit style    : lj
  Current step  : 902000
  Time step     : 0.02
Per MPI rank memory allocation (min/avg/max) = 16.91 | 16.91 | 16.91 Mbytes
Step Temp Press PotEng E_vdwl E_coul KinEng TotEng Enthalpy v_zc 
  902000 0.00021751335 2.6895649e-05            0            0            0 0.00032279364 0.00032279364 0.00053798941    1.7938201 
  910000 0.00032686927 -0.00063398543            0            0            0 0.00048507976 0.00048507976 -0.0045875242    1.7218635 
  920000 0.00022661237 0.0046028465 1.1096147e-06 1.1096147e-06            0 0.00033629675 0.00033740637   0.03716541    2.0294681 
  930000 0.00043516508  0.010220182            0            0            0 0.00064579265 0.00064579265  0.082418862    1.9697904 
  940000 0.00024949351  0.011460698            0            0            0 0.00037025276 0.00037025276  0.092068858    1.9450053 
  950000 0.00026861756 0.0033980138 5.9245805e-05 5.9245805e-05            0 0.00039863319 0.00045787899  0.027645851    1.4626533 
  960000 0.00032915374  -0.01151581            0            0            0 0.00048846995 0.00048846995 -0.091651097    1.8189366 
  970000 0.00015002362 -0.0068910285            0            0            0 0.0002226377 0.0002226377 -0.054913422     2.216801 
  980000 0.0001871144 0.0022477853            0            0            0 0.00027768107 0.00027768107  0.018262518    2.4242377 
  990000 0.00015170211 0.0025814624 9.5303511e-05 9.5303511e-05            0 0.00022512861 0.00032043212  0.020975065    2.3834768 
 1000000 0.00026291159 -0.0034826664            0            0            0 0.00039016543 0.00039016543 -0.027475124    2.1554647 
 1002000 0.00023858211 -0.00031991563            0            0            0 0.00035406005 0.00035406005 -0.0022056286    2.2124017 
Loop time of 112.131 on 1 procs for 100000 steps with 7039 atoms

Performance: 1541056.114 tau/day, 891.815 timesteps/s
100.0% CPU use with 1 MPI tasks x 1 OpenMP threads

MPI task timing breakdown:
Section |  min time  |  avg time  |  max time  |%varavg| %total
---------------------------------------------------------------
Pair    | 60.126     | 60.126     | 60.126     |   0.0 | 53.62
Bond    | 0.014271   | 0.014271   | 0.014271   |   0.0 |  0.01
Neigh   | 12.228     | 12.228     | 12.228     |   0.0 | 10.90
Comm    | 11.639     | 11.639     | 11.639     |   0.0 | 10.38
Output  | 0.005785   | 0.005785   | 0.005785   |   0.0 |  0.01
Modify  | 21.339     | 21.339     | 21.339     |   0.0 | 19.03
Other   |            | 6.779      |            |       |  6.05

Nlocal:    7039 ave 7039 max 7039 min
Histogram: 1 0 0 0 0 0 0 0 0 0
Nghost:    11373 ave 11373 max 11373 min
Histogram: 1 0 0 0 0 0 0 0 0 0
Neighs:    7137 ave 7137 max 7137 min
Histogram: 1 0 0 0 0 0 0 0 0 0

Total # of neighbors = 7137
Ave neighs/atom = 1.01392
Ave special neighs/atom = 0
Neighbor list builds = 877
Dangerous builds = 0
Setting up Verlet run ...
  Unit style    : lj
  Current step  : 1002000
  Time step     : 0.02
Per MPI rank memory allocation (min/avg/max) = 16.91 | 16.91 | 16.91 Mbytes
Step Temp Press PotEng E_vdwl E_coul KinEng TotEng Enthalpy v_zc 
 1002000 0.00023858211 2.9500813e-05            0            0            0 0.00035406005 0.00035406005 0.00059010008    2.2124017 
 1010000 0.0002298015 0.0020157432            0            0            0 0.00034102947 0.00034102947  0.016469266    2.4731927 
 1020000 0.00045528961 0.0017581559            0            0            0 0.00067565781 0.00067565781  0.014742903    2.6849034 
 1030000 0.00016316962 -0.0039282069            0            0            0 0.0002421466 0.0002421466 -0.031187973    2.9848625 
 1040000 0.00035855131 0.0069842659            0            0            0 0.00053209647 0.00053209647  0.056414161     2.739273 
 1050000 0.00027127404 0.0048276719 0.00020914928 0.00020914928            0 0.00040257546 0.00061172474  0.039238587    2.9533026 
 1060000 0.00042697304  0.011509928            0            0            0 0.00063363551 0.00063363551  0.092726143    3.0725155 
 1070000 0.00044223201 -0.0044747428            0            0            0 0.0006562801 0.0006562801 -0.035146748    3.0653132 
 1080000 0.00046770529 0.0044560004            0            0            0 0.00069408289 0.00069408289   0.03634715     3.407632 
 1090000 0.00021889021 -0.005578401            0            0            0 0.00032483693 0.00032483693 -0.044308711    3.2191085 
 1100000 0.00043837649 -0.0040211605            0            0            0 0.00065055844 0.00065055844 -0.031523296    2.9289948 
 1102000 0.00010294104   0.00819631            0            0            0 0.00015276632 0.00015276632  0.065732561    2.5727732 
Loop time of 110.773 on 1 procs for 100000 steps with 7039 atoms

Performance: 1559940.700 tau/day, 902.743 timesteps/s
100.0% CPU use with 1 MPI tasks x 1 OpenMP threads

MPI task timing breakdown:
Section |  min time  |  avg time  |  max time  |%varavg| %total
---------------------------------------------------------------
Pair    | 59.201     | 59.201     | 59.201     |   0.0 | 53.44
Bond    | 0.014221   | 0.014221   | 0.014221   |   0.0 |  0.01
Neigh   | 11.642     | 11.642     | 11.642     |   0.0 | 10.51
Comm    | 11.642     | 11.642     | 11.642     |   0.0 | 10.51
Output  | 0.0039356  | 0.0039356  | 0.0039356  |   0.0 |  0.00
Modify  | 21.437     | 21.437     | 21.437     |   0.0 | 19.35
Other   |            | 6.834      |            |       |  6.17

Nlocal:    7039 ave 7039 max 7039 min
Histogram: 1 0 0 0 0 0 0 0 0 0
Nghost:    11372 ave 11372 max 11372 min
Histogram: 1 0 0 0 0 0 0 0 0 0
Neighs:    7095 ave 7095 max 7095 min
Histogram: 1 0 0 0 0 0 0 0 0 0

Total # of neighbors = 7095
Ave neighs/atom = 1.00796
Ave special neighs/atom = 0
Neighbor list builds = 837
Dangerous builds = 0
Setting up Verlet run ...
  Unit style    : lj
  Current step  : 1102000
  Time step     : 0.02
Per MPI rank memory allocation (min/avg/max) = 16.91 | 16.91 | 16.91 Mbytes
Step Temp Press PotEng E_vdwl E_coul KinEng TotEng Enthalpy v_zc 
 1102000 0.00010294104 1.2728718e-05            0            0            0 0.00015276632 0.00015276632 0.00025461053    2.5727732 
 1110000 0.0001629147  0.015198532            0            0            0 0.00024176828 0.00024176828    0.1218473    2.5807515 
 1120000 0.00028996147 -0.0037719619            0            0            0 0.00043030793 0.00043030793 -0.029749674    2.2318555 
 1130000 1.816265e-05 -0.0028185233 0.00021476571 0.00021476571            0 2.6953692e-05 0.00024171941  -0.02230967    2.1543146 
 1140000 0.00025818908  0.010825337 1.6611008e-05 1.6611008e-05            0 0.00038315714 0.00039976815  0.087014769    2.1677985 
 1150000 0.00035488715 -0.0017986239            0            0            0 0.00052665878 0.00052665878 -0.013864377    2.4211104 
 1160000 0.00024741912 -0.0038169535 1.1347746e-05 1.1347746e-05            0 0.00036717433 0.00037852208 -0.030161444    2.8249741 
 1170000  0.000281403 0.0035947632 0.00021379686 0.00021379686            0 0.00041760701 0.00063140388  0.029393595    2.3895162 
 1180000 0.00033858971 -0.0063678216            0            0            0 0.00050247309 0.00050247309 -0.050447337    2.4335945 
 1190000 0.00054271378 -0.0015776873            0            0            0 0.00080539682 0.00080539682 -0.011817895    2.3423253 
 1200000 0.00011733726 -0.004484534            0            0            0 0.00017413056 0.00017413056 -0.035707238    2.0313625 
 1202000 0.0005037603 0.0074674484            0            0            0 0.00074758916 0.00074758916  0.060495663    2.0233978 
Loop time of 112.855 on 1 procs for 100000 steps with 7039 atoms

Performance: 1531175.090 tau/day, 886.097 timesteps/s
100.0% CPU use with 1 MPI tasks x 1 OpenMP threads

MPI task timing breakdown:
Section |  min time  |  avg time  |  max time  |%varavg| %total
---------------------------------------------------------------
Pair    | 60.52      | 60.52      | 60.52      |   0.0 | 53.63
Bond    | 0.014075   | 0.014075   | 0.014075   |   0.0 |  0.01
Neigh   | 11.749     | 11.749     | 11.749     |   0.0 | 10.41
Comm    | 11.858     | 11.858     | 11.858     |   0.0 | 10.51
Output  | 0.0039587  | 0.0039587  | 0.0039587  |   0.0 |  0.00
Modify  | 21.8       | 21.8       | 21.8       |   0.0 | 19.32
Other   |            | 6.908      |            |       |  6.12

Nlocal:    7039 ave 7039 max 7039 min
Histogram: 1 0 0 0 0 0 0 0 0 0
Nghost:    11368 ave 11368 max 11368 min
Histogram: 1 0 0 0 0 0 0 0 0 0
Neighs:    7113 ave 7113 max 7113 min
Histogram: 1 0 0 0 0 0 0 0 0 0

Total # of neighbors = 7113
Ave neighs/atom = 1.01051
Ave special neighs/atom = 0
Neighbor list builds = 829
Dangerous builds = 0
Setting up Verlet run ...
  Unit style    : lj
  Current step  : 1202000
  Time step     : 0.02
Per MPI rank memory allocation (min/avg/max) = 16.91 | 16.91 | 16.91 Mbytes
Step Temp Press PotEng E_vdwl E_coul KinEng TotEng Enthalpy v_zc 
 1202000 0.0005037603 6.2290247e-05            0            0            0 0.00074758916 0.00074758916 0.0012459819    2.0233978 
 1210000 0.00027567377  0.006341921            0            0            0 0.00040910473 0.00040910473  0.051151681     2.078999 
 1220000 0.00016910206  0.011362891            0            0            0 0.00025095044 0.00025095044   0.09116699    1.9461303 
 1230000 0.00029573842 -0.003373726            0            0            0 0.00043888102 0.00043888102 -0.026554761    1.6384659 
 1240000 0.00038102613 -0.0023800049            0            0            0 0.00056544949 0.00056544949 -0.018477295    1.5703432 
 1250000 0.0003470455 -0.0038868701            0            0            0 0.00051502163 0.00051502163 -0.030584356    1.4894052 
 1260000 0.00056128287 0.0010673774 6.3375472e-06 6.3375472e-06            0 0.00083295367 0.00083929122 0.0093795239    1.3370887 
 1270000 0.00045875015 -0.0072487097            0            0            0 0.0006807933 0.0006807933 -0.057317123    1.6594506 
 1280000 0.00046431297 0.0094035855            0            0            0 0.00068904863 0.00068904863   0.07592842    1.6676836 
 1290000 0.00011154777 -0.0020767462            0            0            0 0.00016553885 0.00016553885 -0.016450791    1.9480268 
 1300000 0.00036509382 0.0076029771            0            0            0 0.00054180566 0.00054180566  0.061374264    1.9817172 
 1302000 0.00022740017 -0.010543507            0            0            0 0.00033746586 0.00033746586 -0.084022574    2.0783994 
Loop time of 127.884 on 1 procs for 100000 steps with 7039 atoms

Performance: 1351225.741 tau/day, 781.959 timesteps/s
100.0% CPU use with 1 MPI tasks x 1 OpenMP threads

MPI task timing breakdown:
Section |  min time  |  avg time  |  max time  |%varavg| %total
---------------------------------------------------------------
Pair    | 63.879     | 63.879     | 63.879     |   0.0 | 49.95
Bond    | 0.018435   | 0.018435   | 0.018435   |   0.0 |  0.01
Neigh   | 13.43      | 13.43      | 13.43      |   0.0 | 10.50
Comm    | 14.751     | 14.751     | 14.751     |   0.0 | 11.53
Output  | 0.0044584  | 0.0044584  | 0.0044584  |   0.0 |  0.00
Modify  | 26.038     | 26.038     | 26.038     |   0.0 | 20.36
Other   |            | 9.762      |            |       |  7.63

Nlocal:    7039 ave 7039 max 7039 min
Histogram: 1 0 0 0 0 0 0 0 0 0
Nghost:    11363 ave 11363 max 11363 min
Histogram: 1 0 0 0 0 0 0 0 0 0
Neighs:    7097 ave 7097 max 7097 min
Histogram: 1 0 0 0 0 0 0 0 0 0

Total # of neighbors = 7097
Ave neighs/atom = 1.00824
Ave special neighs/atom = 0
Neighbor list builds = 810
Dangerous builds = 0
Setting up Verlet run ...
  Unit style    : lj
  Current step  : 1302000
  Time step     : 0.02
Per MPI rank memory allocation (min/avg/max) = 16.91 | 16.91 | 16.91 Mbytes
Step Temp Press PotEng E_vdwl E_coul KinEng TotEng Enthalpy v_zc 
 1302000 0.00022740017 2.811816e-05            0            0            0 0.00033746586 0.00033746586 0.0005624431    2.0783994 
 1310000 0.0001930241 0.0014489082            0            0            0 0.00028645116 0.00028645116  0.011879364    1.5532971 
 1320000 0.00021649266 -0.0040229241            0            0            0 0.00032127892 0.00032127892 -0.031866686    1.7469606 
 1330000 0.00057428209 0.0022544227            0            0            0 0.00085224473 0.00085224473  0.018890188    1.2857681 
 1340000 0.00032514543 0.0070781735 7.8769385e-06 7.8769385e-06            0 0.00048252154 0.00049039848  0.057123831     1.548293 
 1350000 0.00043086457 0.0045635004            0            0            0 0.00063941061 0.00063941061    0.0371526    1.4362987 
 1360000 0.00019735969 -0.0036293305 1.2152632e-06 1.2152632e-06            0 0.00029288526 0.00029410053 -0.028744668    1.7779912 
 1370000 0.00043155652 -0.0035535552 3.1156797e-06 3.1156797e-06            0 0.00064043748 0.00064355316 -0.027788927    1.9756933 
 1380000 0.00035628308 -0.00084227112 6.3343148e-06 6.3343148e-06            0 0.00052873036 0.00053506467 -0.0062040615    2.0169281 
 1390000 0.00021647426 0.00072490562            0            0            0 0.00032125162 0.00032125162 0.0061213205    1.9748416 
 1400000 0.00018028509 -0.005807392            0            0            0 0.00026754625 0.00026754625  -0.04619819    1.6919674 
 1402000 0.00027934189 -0.0074728485            0            0            0 0.00041454829 0.00041454829 -0.059376733    1.5661997 
Loop time of 117.728 on 1 procs for 100000 steps with 7039 atoms

Performance: 1467792.860 tau/day, 849.417 timesteps/s
100.0% CPU use with 1 MPI tasks x 1 OpenMP threads

MPI task timing breakdown:
Section |  min time  |  avg time  |  max time  |%varavg| %total
---------------------------------------------------------------
Pair    | 60.699     | 60.699     | 60.699     |   0.0 | 51.56
Bond    | 0.016649   | 0.016649   | 0.016649   |   0.0 |  0.01
Neigh   | 12.859     | 12.859     | 12.859     |   0.0 | 10.92
Comm    | 12.946     | 12.946     | 12.946     |   0.0 | 11.00
Output  | 0.0043073  | 0.0043073  | 0.0043073  |   0.0 |  0.00
Modify  | 23.243     | 23.243     | 23.243     |   0.0 | 19.74
Other   |            | 7.96       |            |       |  6.76

Nlocal:    7039 ave 7039 max 7039 min
Histogram: 1 0 0 0 0 0 0 0 0 0
Nghost:    11372 ave 11372 max 11372 min
Histogram: 1 0 0 0 0 0 0 0 0 0
Neighs:    7017 ave 7017 max 7017 min
Histogram: 1 0 0 0 0 0 0 0 0 0

Total # of neighbors = 7017
Ave neighs/atom = 0.996875
Ave special neighs/atom = 0
Neighbor list builds = 853
Dangerous builds = 0
Setting up Verlet run ...
  Unit style    : lj
  Current step  : 1402000
  Time step     : 0.02
Per MPI rank memory allocation (min/avg/max) = 16.91 | 16.91 | 16.91 Mbytes
Step Temp Press PotEng E_vdwl E_coul KinEng TotEng Enthalpy v_zc 
 1402000 0.00027934189 3.4540784e-05            0            0            0 0.00041454829 0.00041454829 0.00069091382    1.5661997 
 1410000 0.00012746801 0.0030990865            0            0            0 0.00018916478 0.00018916478  0.024985379    1.5374804 
 1420000 0.00039609528 -0.005911789            0            0            0 0.00058781237 0.00058781237 -0.046713219     1.514326 
 1430000 0.00022101527 0.0014409357 1.4388947e-05 1.4388947e-05            0 0.00032799056 0.0003423795  0.011871503     2.161749 
 1440000 0.0004451345 0.0027062962 4.303119e-05 4.303119e-05            0 0.00066058744 0.00070361863  0.022357064    1.6992974 
 1450000 0.00042131144 0.0028209873            0            0            0 0.00062523359 0.00062523359  0.023196338    2.0321021 
 1460000 0.00010525979 -0.0049509532            0            0            0 0.00015620738 0.00015620738 -0.039457045    1.6241111 
 1470000 0.00029405062  0.002202183            0            0            0 0.0004363763 0.0004363763  0.018056343    1.5190193 
 1480000 0.00029700209 0.0046921089            0            0            0 0.00044075633 0.00044075633  0.037982961    1.5540211 
 1490000 0.00024254398 0.0063185827            0            0            0 0.00035993954 0.00035993954  0.050915783    1.3568025 
 1500000 0.0003103008 -0.0028353857 1.223452e-07 1.223452e-07            0 0.00046049185 0.0004606142 -0.022225694   0.83224449 
 1502000 0.00037600036 0.00076874414 1.3654322e-05 1.3654322e-05            0 0.00055799116 0.00057164548 0.0067224723   0.91125895 
Loop time of 109.321 on 1 procs for 100000 steps with 7039 atoms

Performance: 1580658.902 tau/day, 914.733 timesteps/s
100.0% CPU use with 1 MPI tasks x 1 OpenMP threads

MPI task timing breakdown:
Section |  min time  |  avg time  |  max time  |%varavg| %total
---------------------------------------------------------------
Pair    | 58.888     | 58.888     | 58.888     |   0.0 | 53.87
Bond    | 0.013858   | 0.013858   | 0.013858   |   0.0 |  0.01
Neigh   | 11.498     | 11.498     | 11.498     |   0.0 | 10.52
Comm    | 11.291     | 11.291     | 11.291     |   0.0 | 10.33
Output  | 0.0036962  | 0.0036962  | 0.0036962  |   0.0 |  0.00
Modify  | 21.119     | 21.119     | 21.119     |   0.0 | 19.32
Other   |            | 6.508      |            |       |  5.95

Nlocal:    7039 ave 7039 max 7039 min
Histogram: 1 0 0 0 0 0 0 0 0 0
Nghost:    11374 ave 11374 max 11374 min
Histogram: 1 0 0 0 0 0 0 0 0 0
Neighs:    7088 ave 7088 max 7088 min
Histogram: 1 0 0 0 0 0 0 0 0 0

Total # of neighbors = 7088
Ave neighs/atom = 1.00696
Ave special neighs/atom = 0
Neighbor list builds = 836
Dangerous builds = 0
Setting up Verlet run ...
  Unit style    : lj
  Current step  : 1502000
  Time step     : 0.02
Per MPI rank memory allocation (min/avg/max) = 16.91 | 16.91 | 16.91 Mbytes
Step Temp Press PotEng E_vdwl E_coul KinEng TotEng Enthalpy v_zc 
 1502000 0.00037600036 0.00012769613 1.3654322e-05 1.3654322e-05            0 0.00055799116 0.00057164548 0.0015933597   0.91125895 
 1510000 0.00047687447 0.0003130832            0            0            0 0.00070769012 0.00070769012 0.0032127116    1.3448208 
 1520000 0.00032234224 0.0028048888            0            0            0 0.00047836157 0.00047836157   0.02292066   0.64418691 
 1530000 0.00042296139 0.00094710262            0            0            0 0.00062768216 0.00062768216 0.0082055795   0.91593498 
 1540000 0.00026802804 -0.0018486006            0            0            0 0.00039775833 0.00039775833 -0.014393147    1.1013463 
 1550000 0.00031134841  0.010756487            0            0            0 0.00046204653 0.00046204653  0.086526165    1.5012105 
 1560000 0.00046856401 0.0013239917 5.7492893e-05 5.7492893e-05            0 0.00069535725 0.00075285014  0.011346289    1.0668472 
 1570000 0.00012377134 -0.0020102777            0            0            0 0.00018367886 0.00018367886 -0.015900828   0.35049698 
 1580000 7.5962464e-05  0.001480234            0            0            0 0.00011272963 0.00011272963  0.011956284   0.11748151 
 1590000 0.00032317558 6.2865696e-05            0            0            0 0.00047959825 0.00047959825 0.00098259526  -0.49134396 
 1600000 0.00043349065 0.00090620599            0            0            0 0.00064330776 0.00064330776 0.0078939856  -0.29153253 
 1602000 0.00030844993   0.00197793 2.9853437e-05 2.9853437e-05            0 0.00045774514 0.00048759857  0.016313286  -0.28867286 
Loop time of 105.991 on 1 procs for 100000 steps with 7039 atoms

Performance: 1630332.877 tau/day, 943.480 timesteps/s
100.0% CPU use with 1 MPI tasks x 1 OpenMP threads

MPI task timing breakdown:
Section |  min time  |  avg time  |  max time  |%varavg| %total
---------------------------------------------------------------
Pair    | 57.123     | 57.123     | 57.123     |   0.0 | 53.89
Bond    | 0.013705   | 0.013705   | 0.013705   |   0.0 |  0.01
Neigh   | 10.598     | 10.598     | 10.598     |   0.0 | 10.00
Comm    | 11.103     | 11.103     | 11.103     |   0.0 | 10.48
Output  | 0.0036192  | 0.0036192  | 0.0036192  |   0.0 |  0.00
Modify  | 20.727     | 20.727     | 20.727     |   0.0 | 19.56
Other   |            | 6.423      |            |       |  6.06

Nlocal:    7039 ave 7039 max 7039 min
Histogram: 1 0 0 0 0 0 0 0 0 0
Nghost:    11373 ave 11373 max 11373 min
Histogram: 1 0 0 0 0 0 0 0 0 0
Neighs:    7041 ave 7041 max 7041 min
Histogram: 1 0 0 0 0 0 0 0 0 0

Total # of neighbors = 7041
Ave neighs/atom = 1.00028
Ave special neighs/atom = 0
Neighbor list builds = 781
Dangerous builds = 0
Setting up Verlet run ...
  Unit style    : lj
  Current step  : 1602000
  Time step     : 0.02
Per MPI rank memory allocation (min/avg/max) = 16.91 | 16.91 | 16.91 Mbytes
Step Temp Press PotEng E_vdwl E_coul KinEng TotEng Enthalpy v_zc 
 1602000 0.00030844993 0.00027044882 2.9853437e-05 2.9853437e-05            0 0.00045774514 0.00048759857 0.0026514965  -0.28867286 
 1610000 0.0004558483 -0.00057094743            0            0            0 0.00067648691 0.00067648691 -0.0038917414   -0.2276493 
 1620000 0.00037224002 0.00030725231            0            0            0 0.00055241074 0.00055241074 0.0030107785  0.074084572 
 1630000 0.00024343899 -0.0022938213            0            0            0 0.00036126775 0.00036126775  -0.01799191   0.24459048 
 1640000 0.00042237207 0.0027209644 0.00011456931 0.00011456931            0 0.00062680759 0.0007413769  0.022512185   0.82398885 
 1650000 0.00034938805 -0.0026084436 6.5433188e-05 6.5433188e-05            0 0.00051849802 0.00058393121 -0.020286583   0.55640443 
 1660000 0.00029984652 -0.0071254682 9.6013216e-06 9.6013216e-06            0 0.00044497751 0.00045457883 -0.056557265    1.2557427 
 1670000 0.00021982112 -0.0034664553            0            0            0 0.00032621842 0.00032621842 -0.027409364    1.7530748 
 1680000 0.00066935344 -0.0012955727 0.00012328921 0.00012328921            0 0.00099333229 0.0011166215 -0.0092494322    1.9069196 
 1690000 0.00038265357 0.0069086839 0.0001333167 0.0001333167            0 0.00056786464 0.00070118134  0.055978505    2.0893055 
 1700000 0.00016050617 -0.0052705992            0            0            0 0.00023819399 0.00023819399  -0.04193259    2.0941964 
 1702000 0.00040205212 -0.00084271923            0            0            0 0.00059665242 0.00059665242 -0.0061460592    2.1087652 
Loop time of 107.767 on 1 procs for 100000 steps with 7039 atoms

Performance: 1603455.374 tau/day, 927.926 timesteps/s
100.0% CPU use with 1 MPI tasks x 1 OpenMP threads

MPI task timing breakdown:
Section |  min time  |  avg time  |  max time  |%varavg| %total
---------------------------------------------------------------
Pair    | 58.08      | 58.08      | 58.08      |   0.0 | 53.89
Bond    | 0.013638   | 0.013638   | 0.013638   |   0.0 |  0.01
Neigh   | 11.332     | 11.332     | 11.332     |   0.0 | 10.51
Comm    | 11.118     | 11.118     | 11.118     |   0.0 | 10.32
Output  | 0.049862   | 0.049862   | 0.049862   |   0.0 |  0.05
Modify  | 20.77      | 20.77      | 20.77      |   0.0 | 19.27
Other   |            | 6.404      |            |       |  5.94

Nlocal:    7039 ave 7039 max 7039 min
Histogram: 1 0 0 0 0 0 0 0 0 0
Nghost:    11373 ave 11373 max 11373 min
Histogram: 1 0 0 0 0 0 0 0 0 0
Neighs:    7133 ave 7133 max 7133 min
Histogram: 1 0 0 0 0 0 0 0 0 0

Total # of neighbors = 7133
Ave neighs/atom = 1.01335
Ave special neighs/atom = 0
Neighbor list builds = 838
Dangerous builds = 0
Setting up Verlet run ...
  Unit style    : lj
  Current step  : 1702000
  Time step     : 0.02
Per MPI rank memory allocation (min/avg/max) = 16.91 | 16.91 | 16.91 Mbytes
Step Temp Press PotEng E_vdwl E_coul KinEng TotEng Enthalpy v_zc 
 1702000 0.00040205212 4.9713973e-05            0            0            0 0.00059665242 0.00059665242 0.00099442071    2.1087652 
 1710000 0.00027914696 0.0074737578            0            0            0 0.00041425901 0.00041425901  0.060212815    2.1962012 
 1720000 0.00029394521 0.0060714889            0            0            0 0.00043621987 0.00043621987  0.049015032     2.375046 
 1730000 0.00017514688 0.0018598455 2.361469e-06 2.361469e-06            0 0.00025992106 0.00026228253  0.015143161    2.1848382 
 1740000 0.00055093876 6.4372634e-05            0            0            0 0.00081760283 0.00081760283 0.0013326571    2.7930311 
 1750000 0.00015043939 0.0048495313 1.9911475e-06 1.9911475e-06            0 0.00022325471 0.00022524586  0.039027008    2.6507938 
 1760000 0.00047455323   0.01682816            0            0            0 0.00070424536 0.00070424536   0.13534865    3.3646812 
 1770000 0.00026150933 0.00017586763            0            0            0 0.00038808445 0.00038808445 0.0017952253    3.2382169 
 1780000  0.000397245 -0.013396532            0            0            0 0.00058951858 0.00058951858  -0.10659796    3.3251441 
 1790000 0.00045786418   0.02101105            0            0            0 0.00067947852 0.00067947852   0.16879176    3.6170277 
 1800000 0.00014425589 0.0025971896            0            0            0 0.00021407828 0.00021407828  0.020994547    3.4612935 
 1802000 0.00017539135 0.0013391814            0            0            0 0.00026028385 0.00026028385  0.010975257    3.3134985 
Loop time of 108.742 on 1 procs for 100000 steps with 7039 atoms

Performance: 1589083.703 tau/day, 919.609 timesteps/s
100.0% CPU use with 1 MPI tasks x 1 OpenMP threads

MPI task timing breakdown:
Section |  min time  |  avg time  |  max time  |%varavg| %total
---------------------------------------------------------------
Pair    | 59.123     | 59.123     | 59.123     |   0.0 | 54.37
Bond    | 0.013856   | 0.013856   | 0.013856   |   0.0 |  0.01
Neigh   | 11.585     | 11.585     | 11.585     |   0.0 | 10.65
Comm    | 11.004     | 11.004     | 11.004     |   0.0 | 10.12
Output  | 0.0033951  | 0.0033951  | 0.0033951  |   0.0 |  0.00
Modify  | 20.76      | 20.76      | 20.76      |   0.0 | 19.09
Other   |            | 6.253      |            |       |  5.75

Nlocal:    7039 ave 7039 max 7039 min
Histogram: 1 0 0 0 0 0 0 0 0 0
Nghost:    11363 ave 11363 max 11363 min
Histogram: 1 0 0 0 0 0 0 0 0 0
Neighs:    7155 ave 7155 max 7155 min
Histogram: 1 0 0 0 0 0 0 0 0 0

Total # of neighbors = 7155
Ave neighs/atom = 1.01648
Ave special neighs/atom = 0
Neighbor list builds = 849
Dangerous builds = 0
Setting up Verlet run ...
  Unit style    : lj
  Current step  : 1802000
  Time step     : 0.02
Per MPI rank memory allocation (min/avg/max) = 16.91 | 16.91 | 16.91 Mbytes
Step Temp Press PotEng E_vdwl E_coul KinEng TotEng Enthalpy v_zc 
 1802000 0.00017539135 2.168724e-05            0            0            0 0.00026028385 0.00026028385 0.00043380642    3.3134985 
 1810000 0.00035773645 0.0076498145            0            0            0 0.00053088719 0.00053088719  0.061738097    3.1683925 
 1820000 0.00015462095 0.0022603973            0            0            0 0.00022946021 0.00022946021  0.018315207    3.1538835 
 1830000 0.00024761275 0.0039997242            0            0            0 0.00036746169 0.00036746169  0.032369801    2.9879588 
 1840000 0.00036155276 0.0040890463 6.7157994e-05 6.7157994e-05            0 0.00053655067 0.00060370867  0.033320727    3.1750759 
 1850000 0.00057183663  0.014584409            0            0            0 0.00084861564 0.00084861564   0.11754047    3.7387239 
 1860000 0.0004227919 0.0072973535            0            0            0 0.00062743063 0.00062743063  0.059014552    3.2886927 
 1870000 0.00041628575 -0.0092751854            0            0            0 0.00061777539 0.00061777539  -0.07359425    3.1929886 
 1880000 0.00023133627   0.01434477 0.0007503181 0.0007503181            0 0.00034330709 0.0010936252   0.11586809    3.5902697 
 1890000 0.00039439856 -0.022173054            0            0            0 0.00058529441 0.00058529441  -0.17682434    4.1170757 
 1900000 0.00025485979 -0.012048654            0            0            0 0.00037821642 0.00037821642 -0.096024711    3.9882107 
 1902000 0.00030286345 -0.015552971            0            0            0 0.00044945469 0.00044945469  -0.12399199    4.1532582 
Loop time of 112.036 on 1 procs for 100000 steps with 7039 atoms

Performance: 1542365.582 tau/day, 892.573 timesteps/s
100.0% CPU use with 1 MPI tasks x 1 OpenMP threads

MPI task timing breakdown:
Section |  min time  |  avg time  |  max time  |%varavg| %total
---------------------------------------------------------------
Pair    | 59.066     | 59.066     | 59.066     |   0.0 | 52.72
Bond    | 0.015434   | 0.015434   | 0.015434   |   0.0 |  0.01
Neigh   | 11.591     | 11.591     | 11.591     |   0.0 | 10.35
Comm    | 12.011     | 12.011     | 12.011     |   0.0 | 10.72
Output  | 0.0037301  | 0.0037301  | 0.0037301  |   0.0 |  0.00
Modify  | 22.1       | 22.1       | 22.1       |   0.0 | 19.73
Other   |            | 7.249      |            |       |  6.47

Nlocal:    7039 ave 7039 max 7039 min
Histogram: 1 0 0 0 0 0 0 0 0 0
Nghost:    11369 ave 11369 max 11369 min
Histogram: 1 0 0 0 0 0 0 0 0 0
Neighs:    7064 ave 7064 max 7064 min
Histogram: 1 0 0 0 0 0 0 0 0 0

Total # of neighbors = 7064
Ave neighs/atom = 1.00355
Ave special neighs/atom = 0
Neighbor list builds = 812
Dangerous builds = 0
Setting up Verlet run ...
  Unit style    : lj
  Current step  : 1902000
  Time step     : 0.02
Per MPI rank memory allocation (min/avg/max) = 16.91 | 16.91 | 16.91 Mbytes
Step Temp Press PotEng E_vdwl E_coul KinEng TotEng Enthalpy v_zc 
 1902000 0.00030286345 3.7449238e-05            0            0            0 0.00044945469 0.00044945469 0.00074909116    4.1532582 
 1910000 0.00032657354  -0.01152186            0            0            0 0.00048464089 0.00048464089 -0.091703331    4.2763302 
 1920000 0.00030774927 -0.010834706            0            0            0 0.00045670533 0.00045670533 -0.086233257    4.2067853 
 1930000 0.0002448172 -0.018910798            0            0            0 0.00036331303 0.00036331303  -0.15094456    4.4604636 
 1940000 0.00054378573  0.018204844            0            0            0 0.0008069876 0.0008069876   0.14646643    4.3820738 
 1950000 0.0003797687 -0.022593711            0            0            0 0.00056358344 0.00056358344  -0.18021178    4.5026096 
 1960000 0.0002239733  0.008179139            0            0            0 0.00033238032 0.00033238032  0.065774788    4.5868909 
 1970000 0.00045396703 -0.016235358 4.0139625e-08 4.0139625e-08            0 0.00067369506 0.0006737352  -0.12922758    5.0555776 
 1980000 0.00016361753 -0.0015488601            0            0            0 0.00024281129 0.00024281129  -0.01214983    5.2769636 
 1990000 0.0004196336  0.019499665            0            0            0 0.00062274366 0.00062274366   0.15664222    4.8478361 
 2000000 8.5582946e-05 -0.0039684702            0            0            0 0.0001270066 0.0001270066 -0.031625265    4.9816071 
 2002000 0.00012629041  0.011683526            0            0            0 0.00018741719 0.00018741719    0.0936689    5.0358396 
Loop time of 120.142 on 1 procs for 100000 steps with 7039 atoms

Performance: 1438299.484 tau/day, 832.349 timesteps/s
100.0% CPU use with 1 MPI tasks x 1 OpenMP threads

MPI task timing breakdown:
Section |  min time  |  avg time  |  max time  |%varavg| %total
---------------------------------------------------------------
Pair    | 60.769     | 60.769     | 60.769     |   0.0 | 50.58
Bond    | 0.017682   | 0.017682   | 0.017682   |   0.0 |  0.01
Neigh   | 13.065     | 13.065     | 13.065     |   0.0 | 10.87
Comm    | 13.574     | 13.574     | 13.574     |   0.0 | 11.30
Output  | 0.0042703  | 0.0042703  | 0.0042703  |   0.0 |  0.00
Modify  | 23.976     | 23.976     | 23.976     |   0.0 | 19.96
Other   |            | 8.737      |            |       |  7.27

Nlocal:    7039 ave 7039 max 7039 min
Histogram: 1 0 0 0 0 0 0 0 0 0
Nghost:    11377 ave 11377 max 11377 min
Histogram: 1 0 0 0 0 0 0 0 0 0
Neighs:    7157 ave 7157 max 7157 min
Histogram: 1 0 0 0 0 0 0 0 0 0

Total # of neighbors = 7157
Ave neighs/atom = 1.01676
Ave special neighs/atom = 0
Neighbor list builds = 851
Dangerous builds = 0
Setting up Verlet run ...
  Unit style    : lj
  Current step  : 2002000
  Time step     : 0.02
Per MPI rank memory allocation (min/avg/max) = 16.91 | 16.91 | 16.91 Mbytes
Step Temp Press PotEng E_vdwl E_coul KinEng TotEng Enthalpy v_zc 
 2002000 0.00012629041 1.561588e-05            0            0            0 0.00018741719 0.00018741719 0.00031236198    5.0358396 
 2010000 0.00012209336 0.0096843965            0            0            0 0.0001811887 0.0001811887  0.077667367    5.0833311 
 2020000 8.5998366e-05 -0.0018795635            0            0            0 0.00012762309 0.00012762309 -0.014911021    5.2606747 
 2030000 0.00021037926 0.0065151863            0            0            0 0.00031220653 0.00031220653  0.052441102    5.2539642 
 2040000 0.00028718728 0.0090909787 0.00013560594 0.00013560594            0 0.00042619099 0.00056179693  0.073299959    5.5216551 
 2050000 0.00014050501 -0.00054633304 1.0429534e-06 1.0429534e-06            0 0.00020851191 0.00020955486 -0.0041617303    4.8883056 
 2060000 0.00012093461 0.0096253478 9.6971273e-05 9.6971273e-05            0 0.00017946909 0.00027644036  0.077290162    5.2582179 
 2070000 0.00039923681 -0.0073243754 0.00012209926 0.00012209926            0 0.00059247447 0.00071457372 -0.057888754    5.6961411 
 2080000 0.00024887278 0.0044043231 1.6164527e-06 1.6164527e-06            0 0.0003693316 0.00037094805  0.035610538    5.4242411 
 2090000 0.00051003582 -0.0058819648            0            0            0 0.00075690214 0.00075690214 -0.046305501    5.3229929 
 2100000 0.00042585682 0.0051371567            0            0            0 0.00063197902 0.00063197902  0.041735071    5.5278992 
 2102000 0.00026244083 0.0034667844 8.044963e-05 8.044963e-05            0 0.00038946682 0.00046991645  0.028208131    5.4576642 
Loop time of 116.392 on 1 procs for 100000 steps with 7039 atoms

Performance: 1484644.148 tau/day, 859.169 timesteps/s
100.0% CPU use with 1 MPI tasks x 1 OpenMP threads

MPI task timing breakdown:
Section |  min time  |  avg time  |  max time  |%varavg| %total
---------------------------------------------------------------
Pair    | 61.703     | 61.703     | 61.703     |   0.0 | 53.01
Bond    | 0.01562    | 0.01562    | 0.01562    |   0.0 |  0.01
Neigh   | 12.258     | 12.258     | 12.258     |   0.0 | 10.53
Comm    | 12.405     | 12.405     | 12.405     |   0.0 | 10.66
Output  | 0.0042026  | 0.0042026  | 0.0042026  |   0.0 |  0.00
Modify  | 22.539     | 22.539     | 22.539     |   0.0 | 19.36
Other   |            | 7.467      |            |       |  6.42

Nlocal:    7039 ave 7039 max 7039 min
Histogram: 1 0 0 0 0 0 0 0 0 0
Nghost:    11380 ave 11380 max 11380 min
Histogram: 1 0 0 0 0 0 0 0 0 0
Neighs:    7168 ave 7168 max 7168 min
Histogram: 1 0 0 0 0 0 0 0 0 0

Total # of neighbors = 7168
Ave neighs/atom = 1.01833
Ave special neighs/atom = 0
Neighbor list builds = 839
Dangerous builds = 0
Setting up Verlet run ...
  Unit style    : lj
  Current step  : 2102000
  Time step     : 0.02
Per MPI rank memory allocation (min/avg/max) = 16.91 | 16.91 | 16.91 Mbytes
Step Temp Press PotEng E_vdwl E_coul KinEng TotEng Enthalpy v_zc 
 2102000 0.00026244083 0.00060003242 8.044963e-05 8.044963e-05            0 0.00038946682 0.00046991645 0.0052708578    5.4576642 
 2110000 0.00019360366 -0.013542739            0            0            0 0.00028731124 0.00028731124  -0.10806999     5.551237 
 2120000 0.00016217423 0.0037473128            0            0            0 0.00024066941 0.00024066941  0.030223431    5.2525535 
 2130000 0.00034465267 -0.0024767633            0            0            0 0.00051147063 0.00051147063 -0.019305451     5.443902 
 2140000 0.00039194651 -0.023040445            0            0            0 0.00058165553 0.00058165553  -0.18376809    5.1224723 
 2150000 0.00067805766 -0.013704084 3.1284368e-05 3.1284368e-05            0 0.0010062495 0.0010375339  -0.10861071    5.0652048 
 2160000 0.00016864456 -0.010026351 5.7063041e-05 5.7063041e-05            0 0.0002502715 0.00030733454 -0.079914867    4.8665509 
 2170000 0.0003681339 0.0077900888            0            0            0 0.00054631719 0.00054631719  0.062875881     4.755458 
 2180000 0.00026210654 0.0036557281 3.6418264e-06 3.6418264e-06            0 0.00038897073 0.00039261255  0.029642592    4.7091592 
 2190000 0.00015628811 -0.0072602538            0            0            0 0.00023193431 0.00023193431 -0.057858348    5.1489316 
 2200000 0.00012462354 -0.0075753594            0            0            0 0.00018494353 0.00018494353 -0.060426542     4.713872 
 2202000 0.00018756395 -0.0057885876            0            0            0 0.00027834821 0.00027834821 -0.046036931    4.8372833 
Loop time of 114.014 on 1 procs for 100000 steps with 7039 atoms

Performance: 1515607.468 tau/day, 877.088 timesteps/s
100.0% CPU use with 1 MPI tasks x 1 OpenMP threads

MPI task timing breakdown:
Section |  min time  |  avg time  |  max time  |%varavg| %total
---------------------------------------------------------------
Pair    | 60.784     | 60.784     | 60.784     |   0.0 | 53.31
Bond    | 0.014876   | 0.014876   | 0.014876   |   0.0 |  0.01
Neigh   | 12.587     | 12.587     | 12.587     |   0.0 | 11.04
Comm    | 11.83      | 11.83      | 11.83      |   0.0 | 10.38
Output  | 0.003653   | 0.003653   | 0.003653   |   0.0 |  0.00
Modify  | 21.816     | 21.816     | 21.816     |   0.0 | 19.13
Other   |            | 6.977      |            |       |  6.12

Nlocal:    7039 ave 7039 max 7039 min
Histogram: 1 0 0 0 0 0 0 0 0 0
Nghost:    11366 ave 11366 max 11366 min
Histogram: 1 0 0 0 0 0 0 0 0 0
Neighs:    7039 ave 7039 max 7039 min
Histogram: 1 0 0 0 0 0 0 0 0 0

Total # of neighbors = 7039
Ave neighs/atom = 1
Ave special neighs/atom = 0
Neighbor list builds = 884
Dangerous builds = 0
Setting up Verlet run ...
  Unit style    : lj
  Current step  : 2202000
  Time step     : 0.02
Per MPI rank memory allocation (min/avg/max) = 16.91 | 16.91 | 16.91 Mbytes
Step Temp Press PotEng E_vdwl E_coul KinEng TotEng Enthalpy v_zc 
 2202000 0.00018756395 2.3192389e-05            0            0            0 0.00027834821 0.00027834821 0.00046391368    4.8372833 
 2210000 0.00051868764 0.0050705457 9.2707917e-05 9.2707917e-05            0 0.00076974159 0.00086244951  0.041432578     5.127655 
 2220000 0.00046651553 0.0031902217 0.00027204215 0.00027204215            0 0.00069231726 0.00096435941  0.026489759    4.6449666 
 2230000 8.3929813e-05 0.0016933731            0            0            0 0.00012455332 0.00012455332  0.013673462    4.1996106 
 2240000 0.00043016978 0.00097359006            0            0            0 0.00063837953 0.00063837953 0.0084282066    4.1569042 
 2250000 0.00017911989 -0.017417582            0            0            0 0.00026581708 0.00026581708  -0.13909463    4.1961289 
 2260000 0.00039127998  0.015940626            0            0            0 0.00058066638 0.00058066638   0.12812379    4.2405682 
 2270000 2.8867825e-05 0.00012004928            0            0            0 4.284036e-05 4.284036e-05  0.001003371    4.1493219 
 2280000 0.00054671118 -0.0045412165            0            0            0 0.00081132902 0.00081132902 -0.035523564    4.6042666 
 2290000 0.00036371428  0.019098045            0            0            0 0.0005397584 0.0005397584   0.15334583    4.1776859 
 2300000 0.00037889355 -0.016884507            0            0            0 0.0005622847 0.0005622847  -0.13453296    3.7523931 
 2302000 0.00015265317 -0.0070986323            0            0            0   0.00022654   0.00022654 -0.056570586    3.7094456 
Loop time of 108.595 on 1 procs for 100000 steps with 7039 atoms

Performance: 1591240.640 tau/day, 920.857 timesteps/s
100.0% CPU use with 1 MPI tasks x 1 OpenMP threads

MPI task timing breakdown:
Section |  min time  |  avg time  |  max time  |%varavg| %total
---------------------------------------------------------------
Pair    | 58.216     | 58.216     | 58.216     |   0.0 | 53.61
Bond    | 0.014106   | 0.014106   | 0.014106   |   0.0 |  0.01
Neigh   | 11.54      | 11.54      | 11.54      |   0.0 | 10.63
Comm    | 11.249     | 11.249     | 11.249     |   0.0 | 10.36
Output  | 0.0037239  | 0.0037239  | 0.0037239  |   0.0 |  0.00
Modify  | 21.073     | 21.073     | 21.073     |   0.0 | 19.41
Other   |            | 6.499      |            |       |  5.98

Nlocal:    7039 ave 7039 max 7039 min
Histogram: 1 0 0 0 0 0 0 0 0 0
Nghost:    11371 ave 11371 max 11371 min
Histogram: 1 0 0 0 0 0 0 0 0 0
Neighs:    7061 ave 7061 max 7061 min
Histogram: 1 0 0 0 0 0 0 0 0 0

Total # of neighbors = 7061
Ave neighs/atom = 1.00313
Ave special neighs/atom = 0
Neighbor list builds = 839
Dangerous builds = 0
Setting up Verlet run ...
  Unit style    : lj
  Current step  : 2302000
  Time step     : 0.02
Per MPI rank memory allocation (min/avg/max) = 16.91 | 16.91 | 16.91 Mbytes
Step Temp Press PotEng E_vdwl E_coul KinEng TotEng Enthalpy v_zc 
 2302000 0.00015265317 1.8875651e-05            0            0            0   0.00022654   0.00022654 0.00037756666    3.7094456 
 2310000 0.00016607378 -0.0024081736            0            0            0 0.00024645642 0.00024645642 -0.019021669    3.8145869 
 2320000 0.0001437092  0.003086486            0            0            0 0.00021326699 0.00021326699  0.024908663    4.0181597 
 2330000 0.00046203772 0.0064415234            0            0            0 0.00068567211 0.00068567211   0.05222518    3.8988422 
 2340000 0.00039505613 0.0025595167 0.00013646205 0.00013646205            0 0.00058627025 0.00072273231  0.021201775    3.4496222 
 2350000 0.00024395029 -0.0039242892            0            0            0 0.00036202653 0.00036202653 -0.031036747    3.5584558 
 2360000 0.00042607256 -0.0046817635            0            0            0 0.00063229918 0.00063229918  -0.03682713     3.584882 
 2370000 0.00021647747 -0.0061475094 6.748986e-05 6.748986e-05            0 0.00032125638 0.00038874624 -0.048798315    3.4127785 
 2380000 0.00032178281  0.015943451 6.788701e-05 6.788701e-05            0 0.00047753136 0.00054541837   0.12811115    3.2069076 
 2390000 0.00024476744 0.0063805666            0            0            0 0.00036323919 0.00036323919  0.051415023    3.6687116 
 2400000 0.00036057952 -0.013940526            0            0            0 0.00053510636 0.00053510636  -0.11100495    3.5813611 
 2402000 9.2689989e-05  0.010295977            0            0            0 0.00013755358 0.00013755358  0.082517069    3.4115742 
Loop time of 105.442 on 1 procs for 100000 steps with 7039 atoms

Performance: 1638816.158 tau/day, 948.389 timesteps/s
100.0% CPU use with 1 MPI tasks x 1 OpenMP threads

MPI task timing breakdown:
Section |  min time  |  avg time  |  max time  |%varavg| %total
---------------------------------------------------------------
Pair    | 57.033     | 57.033     | 57.033     |   0.0 | 54.09
Bond    | 0.013772   | 0.013772   | 0.013772   |   0.0 |  0.01
Neigh   | 10.651     | 10.651     | 10.651     |   0.0 | 10.10
Comm    | 10.96      | 10.96      | 10.96      |   0.0 | 10.39
Output  | 0.0036168  | 0.0036168  | 0.0036168  |   0.0 |  0.00
Modify  | 20.414     | 20.414     | 20.414     |   0.0 | 19.36
Other   |            | 6.366      |            |       |  6.04

Nlocal:    7039 ave 7039 max 7039 min
Histogram: 1 0 0 0 0 0 0 0 0 0
Nghost:    11369 ave 11369 max 11369 min
Histogram: 1 0 0 0 0 0 0 0 0 0
Neighs:    7083 ave 7083 max 7083 min
Histogram: 1 0 0 0 0 0 0 0 0 0

Total # of neighbors = 7083
Ave neighs/atom = 1.00625
Ave special neighs/atom = 0
Neighbor list builds = 800
Dangerous builds = 0
Setting up Verlet run ...
  Unit style    : lj
  Current step  : 2402000
  Time step     : 0.02
Per MPI rank memory allocation (min/avg/max) = 16.91 | 16.91 | 16.91 Mbytes
Step Temp Press PotEng E_vdwl E_coul KinEng TotEng Enthalpy v_zc 
 2402000 9.2689989e-05 1.146117e-05            0            0            0 0.00013755358 0.00013755358 0.00022925596    3.4115742 
 2410000 0.00020853203 -0.0015698682 2.6308804e-05 2.6308804e-05            0 0.0003094652  0.000335774 -0.012224956    3.8261624 
 2420000 0.00033187381 -0.011399832            0            0            0 0.00049250658 0.00049250658 -0.090719102    3.7382239 
 2430000 0.00034451791 -0.015706752            0            0            0 0.00051127065 0.00051127065   -0.1251606     4.171335 
 2440000 0.00046612398 -0.018566625 3.0829585e-07 3.0829585e-07            0 0.0006917362 0.0006920445  -0.14786206     4.054846 
 2450000 0.00024467036 0.0030938447            0            0            0 0.00036309513 0.00036309513  0.025117369    4.0998115 
 2460000 0.00020995941 -0.0021785235            0            0            0 0.00031158346 0.00031158346  -0.01711908    3.8906398 
 2470000 0.00035536624 0.0097751037            0            0            0 0.00052736975 0.00052736975  0.078739309    3.5225686 
 2480000 0.00043424361 -0.0031715279            0            0            0 0.00064442517 0.00064442517 -0.024731402    3.2650037 
 2490000 5.703856e-05 0.0070901805            0            0            0 8.4646228e-05 8.4646228e-05  0.056814149    3.5575569 
 2500000 0.00039991739   0.01148305 3.6554206e-07 3.6554206e-07            0 0.00059348446   0.00059385  0.092471303    3.5460726 
 2502000 0.00014509549 0.0087149612 3.1163003e-07 3.1163003e-07            0 0.00021532427 0.0002156359   0.06994523    3.5742313 
Loop time of 110.996 on 1 procs for 100000 steps with 7039 atoms

Performance: 1556808.179 tau/day, 900.931 timesteps/s
100.0% CPU use with 1 MPI tasks x 1 OpenMP threads

MPI task timing breakdown:
Section |  min time  |  avg time  |  max time  |%varavg| %total
---------------------------------------------------------------
Pair    | 59.858     | 59.858     | 59.858     |   0.0 | 53.93
Bond    | 0.014054   | 0.014054   | 0.014054   |   0.0 |  0.01
Neigh   | 11.883     | 11.883     | 11.883     |   0.0 | 10.71
Comm    | 11.424     | 11.424     | 11.424     |   0.0 | 10.29
Output  | 0.0035334  | 0.0035334  | 0.0035334  |   0.0 |  0.00
Modify  | 21.238     | 21.238     | 21.238     |   0.0 | 19.13
Other   |            | 6.576      |            |       |  5.92

Nlocal:    7039 ave 7039 max 7039 min
Histogram: 1 0 0 0 0 0 0 0 0 0
Nghost:    11381 ave 11381 max 11381 min
Histogram: 1 0 0 0 0 0 0 0 0 0
Neighs:    7025 ave 7025 max 7025 min
Histogram: 1 0 0 0 0 0 0 0 0 0

Total # of neighbors = 7025
Ave neighs/atom = 0.998011
Ave special neighs/atom = 0
Neighbor list builds = 859
Dangerous builds = 0
Setting up Verlet run ...
  Unit style    : lj
  Current step  : 2502000
  Time step     : 0.02
Per MPI rank memory allocation (min/avg/max) = 16.91 | 16.91 | 16.91 Mbytes
Step Temp Press PotEng E_vdwl E_coul KinEng TotEng Enthalpy v_zc 
 2502000 0.00014509549 3.1059759e-05 3.1163003e-07 3.1163003e-07            0 0.00021532427 0.0002156359 0.00046414927    3.5742313 
 2510000 0.00032474068 0.00058814287            0            0            0 0.00048192089 0.00048192089 0.0051877323    3.1361442 
 2520000 0.00020814078 0.0011642971 5.183508e-05 5.183508e-05            0 0.00030888458 0.00036071966 0.0096764195       2.0651 
 2530000 0.00040585835 -0.0076077774 3.8652513e-05 3.8652513e-05            0 0.00060230094 0.00064095346 -0.060229912    1.8412426 
 2540000 0.0003817327 -0.00057228008            0            0            0 0.00056649806 0.00056649806 -0.004012393    1.7006158 
 2550000 0.0002167012 0.0084655314 2.0926056e-05 2.0926056e-05            0 0.0003215884 0.00034251446  0.068076387    2.0042496 
 2560000 0.00017222006 -0.002439768            0            0            0 0.0002555776 0.0002555776 -0.019265339    1.9768607 
 2570000 0.00028474041 -0.0044226558            0            0            0 0.00042255978 0.00042255978 -0.034963713    2.3028583 
 2580000 0.00037153732 -0.00096193998 0.00019946095 0.00019946095            0 0.00055136792 0.00075082887 -0.0069457842    2.7014224 
 2590000 0.00053739105 0.00073177486 7.6486089e-06 7.6486089e-06            0 0.00079749778 0.00080514639  0.006660177    2.6431683 
 2600000 0.00033796893 0.0049147934 7.8045019e-05 7.8045019e-05            0 0.00050155184 0.00057959686   0.03990353    2.5790631 
 2602000 0.00051252159 -0.0056415186 4.3409421e-05 4.3409421e-05            0 0.00076059106 0.00080400048  -0.04433456     2.425424 
Loop time of 107.264 on 1 procs for 100000 steps with 7039 atoms

Performance: 1610985.099 tau/day, 932.283 timesteps/s
100.0% CPU use with 1 MPI tasks x 1 OpenMP threads

MPI task timing breakdown:
Section |  min time  |  avg time  |  max time  |%varavg| %total
---------------------------------------------------------------
Pair    | 57.936     | 57.936     | 57.936     |   0.0 | 54.01
Bond    | 0.01378    | 0.01378    | 0.01378    |   0.0 |  0.01
Neigh   | 11.218     | 11.218     | 11.218     |   0.0 | 10.46
Comm    | 11.053     | 11.053     | 11.053     |   0.0 | 10.30
Output  | 0.0035529  | 0.0035529  | 0.0035529  |   0.0 |  0.00
Modify  | 20.641     | 20.641     | 20.641     |   0.0 | 19.24
Other   |            | 6.397      |            |       |  5.96

Nlocal:    7039 ave 7039 max 7039 min
Histogram: 1 0 0 0 0 0 0 0 0 0
Nghost:    11377 ave 11377 max 11377 min
Histogram: 1 0 0 0 0 0 0 0 0 0
Neighs:    7130 ave 7130 max 7130 min
Histogram: 1 0 0 0 0 0 0 0 0 0

Total # of neighbors = 7130
Ave neighs/atom = 1.01293
Ave special neighs/atom = 0
Neighbor list builds = 836
Dangerous builds = 0
Setting up Verlet run ...
  Unit style    : lj
  Current step  : 2602000
  Time step     : 0.02
Per MPI rank memory allocation (min/avg/max) = 16.91 | 16.91 | 16.91 Mbytes
Step Temp Press PotEng E_vdwl E_coul KinEng TotEng Enthalpy v_zc 
 2602000 0.00051252159 0.00036222544 4.3409421e-05 4.3409421e-05            0 0.00076059106 0.00080400048 0.0037022157     2.425424 
 2610000 0.00012310803 -0.011013036            0            0            0 0.00018269449 0.00018269449  -0.08793411    2.5182827 
 2620000 0.00037379163 0.0046843674 0.00022379174 0.00022379174            0 0.00055471336 0.00077850509  0.038258768    2.0204082 
 2630000 0.00048395959 -0.0044302351            0            0            0 0.00071820455 0.00071820455 -0.034728712    1.8373651 
 2640000 0.0003885569 0.0025794386 2.7574462e-05 2.7574462e-05            0 0.00057662528 0.00060419974   0.02124264    1.6116735 
 2650000 0.00033992003 -0.0021531091 4.2919265e-05 4.2919265e-05            0 0.00050444731 0.00054736658 -0.016679954    1.5233739 
 2660000 0.00038847767 0.0026217046 3.4473329e-05 3.4473329e-05            0 0.0005765077 0.00061098103  0.021587598    1.9573343 
 2670000 0.00017017607 0.0066895773 6.2721146e-05 6.2721146e-05            0 0.00025254429 0.00031526544  0.053839487    2.0696101 
[...]
39120000 0.00023052282 -0.0055366951 1.8957445e-05 1.8957445e-05            0 0.00034209993 0.00036105738 -0.043938796    52.775048 
39130000 0.00024714017   0.19782166            0            0            0 0.00036676037 0.00036676037    1.5831649    52.642049 
39140000 0.00070185706   0.18665152            0            0            0 0.0010415682 0.0010415682    1.4944659    52.520083 
39150000 0.00035297207 -0.0017171369            0            0            0 0.00052381677 0.00052381677  -0.01321523    52.476763 
39160000 0.00040302092  -0.18608997            0            0            0 0.00059809014 0.00059809014   -1.4883332    52.801081 
39170000 0.00040921259  -0.13956528            0            0            0 0.00060727869 0.00060727869   -1.1160736    53.102424 
39180000 0.0002596258  -0.23763493            0            0            0 0.00038528926 0.00038528926   -1.9009642    52.239709 
39190000 0.00038604369  0.053426262            0            0            0 0.00057289563 0.00057289563   0.42804371    52.102297 
39200000 4.4921641e-05 -0.083653829            0            0            0 6.6664506e-05 6.6664506e-05  -0.66925905    52.233431 
39202000 0.00014749838  0.080127851            0            0            0 0.00021889019 0.00021889019   0.64133276    52.331024 
Loop time of 111.398 on 1 procs for 100000 steps with 7039 atoms

Performance: 1551191.827 tau/day, 897.680 timesteps/s
100.0% CPU use with 1 MPI tasks x 1 OpenMP threads

MPI task timing breakdown:
Section |  min time  |  avg time  |  max time  |%varavg| %total
---------------------------------------------------------------
Pair    | 57.624     | 57.624     | 57.624     |   0.0 | 51.73
Bond    | 0.015662   | 0.015662   | 0.015662   |   0.0 |  0.01
Neigh   | 12.157     | 12.157     | 12.157     |   0.0 | 10.91
Comm    | 12.072     | 12.072     | 12.072     |   0.0 | 10.84
Output  | 0.0036793  | 0.0036793  | 0.0036793  |   0.0 |  0.00
Modify  | 22.097     | 22.097     | 22.097     |   0.0 | 19.84
Other   |            | 7.43       |            |       |  6.67

Nlocal:    7039 ave 7039 max 7039 min
Histogram: 1 0 0 0 0 0 0 0 0 0
Nghost:    11370 ave 11370 max 11370 min
Histogram: 1 0 0 0 0 0 0 0 0 0
Neighs:    7057 ave 7057 max 7057 min
Histogram: 1 0 0 0 0 0 0 0 0 0

Total # of neighbors = 7057
Ave neighs/atom = 1.00256
Ave special neighs/atom = 0
Neighbor list builds = 851
Dangerous builds = 0
Setting up Verlet run ...
  Unit style    : lj
  Current step  : 39202000
  Time step     : 0.02
Per MPI rank memory allocation (min/avg/max) = 16.91 | 16.91 | 16.91 Mbytes
Step Temp Press PotEng E_vdwl E_coul KinEng TotEng Enthalpy v_zc 
39202000 0.00014749838 1.8238258e-05            0            0            0 0.00021889019 0.00021889019 0.00036481698    52.331024 
39210000 0.00035551127    0.1418382 0.00011443894 0.00011443894            0 0.00052758498 0.00064202392    1.1355088     52.06591 
39220000 0.00055051908 -0.093980805            0            0            0 0.00081698002 0.00081698002  -0.75113627    51.928299 
39230000 0.00029002328 -0.023932237            0            0            0 0.00043039966 0.00043039966   -0.1910547     52.37295 
39240000 0.00033940467  -0.20004806            0            0            0 0.00050368251 0.00050368251   -1.6001081    52.720373 
39250000 0.00020951057 -0.080377311            0            0            0 0.00031091738 0.00031091738  -0.64279892    52.593693 
39260000 0.0005974465  -0.23776843            0            0            0 0.00088662112 0.00088662112    -1.901531    52.741333 
39270000 0.0003037364  -0.17926971            0            0            0 0.00045075016 0.00045075016   -1.4339107     52.79696 
39280000 0.00029649595  0.062641699            0            0            0 0.00044000522 0.00044000522   0.50164479    52.908919 
39290000 0.00014617873   0.06317506            0            0            0 0.00021693181 0.00021693181   0.50568921     53.47748 
39300000 0.00033871383  0.019983086            0            0            0 0.00050265728 0.00050265728   0.16039006    53.650966 
39302000 0.00040872696 -0.028082045            0            0            0 0.00060655801 0.00060655801  -0.22408172    53.467626 
Loop time of 102.062 on 1 procs for 100000 steps with 7039 atoms

Performance: 1693090.045 tau/day, 979.797 timesteps/s
100.0% CPU use with 1 MPI tasks x 1 OpenMP threads

MPI task timing breakdown:
Section |  min time  |  avg time  |  max time  |%varavg| %total
---------------------------------------------------------------
Pair    | 55.779     | 55.779     | 55.779     |   0.0 | 54.65
Bond    | 0.013658   | 0.013658   | 0.013658   |   0.0 |  0.01
Neigh   | 10.66      | 10.66      | 10.66      |   0.0 | 10.44
Comm    | 10.189     | 10.189     | 10.189     |   0.0 |  9.98
Output  | 0.0030637  | 0.0030637  | 0.0030637  |   0.0 |  0.00
Modify  | 19.753     | 19.753     | 19.753     |   0.0 | 19.35
Other   |            | 5.665      |            |       |  5.55

Nlocal:    7039 ave 7039 max 7039 min
Histogram: 1 0 0 0 0 0 0 0 0 0
Nghost:    11376 ave 11376 max 11376 min
Histogram: 1 0 0 0 0 0 0 0 0 0
Neighs:    7090 ave 7090 max 7090 min
Histogram: 1 0 0 0 0 0 0 0 0 0

Total # of neighbors = 7090
Ave neighs/atom = 1.00725
Ave special neighs/atom = 0
Neighbor list builds = 818
Dangerous builds = 0
Setting up Verlet run ...
  Unit style    : lj
  Current step  : 39302000
  Time step     : 0.02
Per MPI rank memory allocation (min/avg/max) = 16.91 | 16.91 | 16.91 Mbytes
Step Temp Press PotEng E_vdwl E_coul KinEng TotEng Enthalpy v_zc 
39302000 0.00040872696 5.0539321e-05            0            0            0 0.00060655801 0.00060655801   0.00101093    53.467626 
39310000 0.00020922102    0.0102493            0            0            0 0.00031048768 0.00031048768  0.082316537    53.924209 
39320000 0.00013567001  -0.19865962            0            0            0 0.00020133669 0.00020133669   -1.5893014    54.243142 
39330000 8.6048611e-05 -0.052442857            0            0            0 0.00012769765 0.00012769765  -0.41947476    53.423099 
39340000 0.00037636158  -0.14454377            0            0            0 0.00055852722 0.00055852722   -1.1559559    53.546347 
39350000 0.00030963472   0.13086937            0            0            0 0.00045950338 0.00045950338    1.0475632    54.044586 
39360000 0.00017729035   0.14726959 8.4561135e-08 8.4561135e-08            0  0.000263102 0.00026318656    1.1785873    53.979068 
39370000 0.00026854241   -0.1673549            0            0            0 0.00039852166 0.00039852166   -1.3386309    53.990328 
39380000 6.4470823e-05  0.058909518            0            0            0 9.5675836e-05 9.5675836e-05   0.47143877    54.087778 
39390000 5.0268616e-05  0.022676321            0            0            0 7.4599512e-05 7.4599512e-05   0.18151094    54.091247 
39400000 0.00044043776 -0.077254372 1.460759e-07 1.460759e-07            0 0.00065361739 0.00065376346  -0.61746902    54.466973 
39402000 0.00023311884   0.11694057            0            0            0 0.00034595246 0.00034595246   0.93600342    54.213355 
Loop time of 102.219 on 1 procs for 100000 steps with 7039 atoms

Performance: 1690493.639 tau/day, 978.295 timesteps/s
100.0% CPU use with 1 MPI tasks x 1 OpenMP threads

MPI task timing breakdown:
Section |  min time  |  avg time  |  max time  |%varavg| %total
---------------------------------------------------------------
Pair    | 55.753     | 55.753     | 55.753     |   0.0 | 54.54
Bond    | 0.013765   | 0.013765   | 0.013765   |   0.0 |  0.01
Neigh   | 10.825     | 10.825     | 10.825     |   0.0 | 10.59
Comm    | 10.214     | 10.214     | 10.214     |   0.0 |  9.99
Output  | 0.0030782  | 0.0030782  | 0.0030782  |   0.0 |  0.00
Modify  | 19.753     | 19.753     | 19.753     |   0.0 | 19.32
Other   |            | 5.657      |            |       |  5.53

Nlocal:    7039 ave 7039 max 7039 min
Histogram: 1 0 0 0 0 0 0 0 0 0
Nghost:    11366 ave 11366 max 11366 min
Histogram: 1 0 0 0 0 0 0 0 0 0
Neighs:    7134 ave 7134 max 7134 min
Histogram: 1 0 0 0 0 0 0 0 0 0

Total # of neighbors = 7134
Ave neighs/atom = 1.0135
Ave special neighs/atom = 0
Neighbor list builds = 832
Dangerous builds = 0
Setting up Verlet run ...
  Unit style    : lj
  Current step  : 39402000
  Time step     : 0.02
Per MPI rank memory allocation (min/avg/max) = 16.91 | 16.91 | 16.91 Mbytes
Step Temp Press PotEng E_vdwl E_coul KinEng TotEng Enthalpy v_zc 
39402000 0.00023311884 2.8825277e-05            0            0            0 0.00034595246 0.00034595246 0.00057658744    54.213355 
39410000 0.00018737844   0.13420843            0            0            0 0.00027807291 0.00027807291     1.074098    54.514915 
39420000 0.00043523828  -0.20200875            0            0            0 0.00064590128 0.00064590128   -1.6156537    54.840559 
39430000 0.00036610088  -0.05538503            0            0            0 0.00054330015 0.00054330015  -0.44259989    54.374882 
39440000 0.00024202883 -0.067319817            0            0            0 0.00035917505 0.00035917505  -0.53827587    54.340428 
39450000 0.00010898612  -0.14770592            0            0            0 0.00016173732 0.00016173732   -1.1816535    54.620385 
39460000 0.00014320612  -0.12038862            0            0            0 0.00021252041 0.00021252041   -0.9630333    54.530801 
39470000 0.00034947164 -0.052381381            0            0            0 0.00051862208 0.00051862208  -0.41859196    54.892266 
39480000 0.00066778155 -0.077972331 0.00027740644 0.00027740644            0 0.00099099958  0.001268406  -0.62259886    55.087375 
39490000 0.00021578522   0.27891957 9.4023179e-06 9.4023179e-06            0 0.00032022907 0.00032963139    2.2320032    54.838851 
39500000 0.00011498661  -0.07388285 4.9868472e-07 4.9868472e-07            0 0.00017064215 0.00017114084  -0.59097563    54.708679 
39502000 0.0003300606 0.0037817261            0            0            0 0.00048981574 0.00048981574  0.030747923    54.525156 
Loop time of 110.573 on 1 procs for 100000 steps with 7039 atoms

Performance: 1562768.256 tau/day, 904.380 timesteps/s
100.0% CPU use with 1 MPI tasks x 1 OpenMP threads

MPI task timing breakdown:
Section |  min time  |  avg time  |  max time  |%varavg| %total
---------------------------------------------------------------
Pair    | 58.496     | 58.496     | 58.496     |   0.0 | 52.90
Bond    | 0.015393   | 0.015393   | 0.015393   |   0.0 |  0.01
Neigh   | 11.393     | 11.393     | 11.393     |   0.0 | 10.30
Comm    | 11.702     | 11.702     | 11.702     |   0.0 | 10.58
Output  | 0.0038869  | 0.0038869  | 0.0038869  |   0.0 |  0.00
Modify  | 21.807     | 21.807     | 21.807     |   0.0 | 19.72
Other   |            | 7.155      |            |       |  6.47

Nlocal:    7039 ave 7039 max 7039 min
Histogram: 1 0 0 0 0 0 0 0 0 0
Nghost:    11383 ave 11383 max 11383 min
Histogram: 1 0 0 0 0 0 0 0 0 0
Neighs:    7123 ave 7123 max 7123 min
Histogram: 1 0 0 0 0 0 0 0 0 0

Total # of neighbors = 7123
Ave neighs/atom = 1.01193
Ave special neighs/atom = 0
Neighbor list builds = 812
Dangerous builds = 0
Setting up Verlet run ...
  Unit style    : lj
  Current step  : 39502000
  Time step     : 0.02
Per MPI rank memory allocation (min/avg/max) = 16.91 | 16.91 | 16.91 Mbytes
Step Temp Press PotEng E_vdwl E_coul KinEng TotEng Enthalpy v_zc 
39502000 0.0003300606 4.081218e-05            0            0            0 0.00048981574 0.00048981574 0.00081635957    54.525156 
39510000 0.0005138408 -0.045385661            0            0            0 0.00076254879 0.00076254879  -0.36237432    54.643125 
39520000 0.00036107391 -0.051008055            0            0            0 0.00053584004 0.00053584004  -0.40758657    54.516194 
39530000 0.00040125927   0.15037281            0            0            0 0.00059547583 0.00059547583    1.2037489    54.807782 
39540000 0.00026943699  0.050846448            0            0            0 0.00039984924 0.00039984924   0.40722922    55.069787 
39550000 0.00049111185  -0.10087022            0            0            0 0.00072881864 0.00072881864   -0.8063476    55.520324 
39560000 0.00050254078 -0.079610274            0            0            0 0.00074577937 0.00074577937  -0.63622689    55.843185 
39570000 8.9187731e-05 0.0012267312            0            0            0 0.00013235616 0.00013235616 0.0099475997    55.972512 
39580000 0.00037144294   0.25757932            0            0            0 0.00055122787 0.00055122787    2.0614785    55.949413 
39590000 0.00057471774  -0.29701128 0.00015211227 0.00015211227            0 0.00085289125 0.0010050035   -2.3754228    56.132935 
39600000 6.6144414e-05  0.014785178 4.1655276e-05 4.1655276e-05            0 9.8159475e-05 0.00013981475   0.11843804    55.768171 
39602000 0.0003100699  0.077080833 3.1125141e-07 3.1125141e-07            0 0.0004601492 0.00046046045   0.61719473    55.717555 
Loop time of 132.156 on 1 procs for 100000 steps with 7039 atoms

Performance: 1307543.270 tau/day, 756.680 timesteps/s
100.0% CPU use with 1 MPI tasks x 1 OpenMP threads

MPI task timing breakdown:
Section |  min time  |  avg time  |  max time  |%varavg| %total
---------------------------------------------------------------
Pair    | 62.841     | 62.841     | 62.841     |   0.0 | 47.55
Bond    | 0.019405   | 0.019405   | 0.019405   |   0.0 |  0.01
Neigh   | 13.733     | 13.733     | 13.733     |   0.0 | 10.39
Comm    | 16.157     | 16.157     | 16.157     |   0.0 | 12.23
Output  | 0.0041614  | 0.0041614  | 0.0041614  |   0.0 |  0.00
Modify  | 27.56      | 27.56      | 27.56      |   0.0 | 20.85
Other   |            | 11.84      |            |       |  8.96

Nlocal:    7039 ave 7039 max 7039 min
Histogram: 1 0 0 0 0 0 0 0 0 0
Nghost:    11374 ave 11374 max 11374 min
Histogram: 1 0 0 0 0 0 0 0 0 0
Neighs:    7096 ave 7096 max 7096 min
Histogram: 1 0 0 0 0 0 0 0 0 0

Total # of neighbors = 7096
Ave neighs/atom = 1.0081
Ave special neighs/atom = 0
Neighbor list builds = 822
Dangerous builds = 0
Setting up Verlet run ...
  Unit style    : lj
  Current step  : 39602000
  Time step     : 0.02
Per MPI rank memory allocation (min/avg/max) = 16.91 | 16.91 | 16.91 Mbytes
Step Temp Press PotEng E_vdwl E_coul KinEng TotEng Enthalpy v_zc 
39602000 0.0003100699 0.00013467102 3.1125141e-07 3.1125141e-07            0 0.0004601492 0.00046046045 0.0015379816    55.717555 
39610000 0.00025554606  0.066864344            0            0            0 0.00037923486 0.00037923486   0.53536998    55.281583 
39620000 0.00019210182   -0.1183107 5.6783456e-06 5.6783456e-06            0 0.00028508248 0.00029076082  -0.94632928    55.670492 
39630000 0.00031241334 -0.038003698            0            0            0 0.0004636269 0.0004636269  -0.30360915    55.880108 
39640000 0.00051037635 -0.057935513            0            0            0 0.0007574075 0.0007574075  -0.46279254    55.768297 
39650000 0.0002097218 -0.050373641            0            0            0 0.00031123085 0.00031123085  -0.40273515    55.451981 
39660000 0.00022814007 -0.007080729            0            0            0 0.00033856388 0.00033856388 -0.056315316    55.481011 
39670000 0.00039116501  -0.21733965            0            0            0 0.00058049577 0.00058049577   -1.7383837    55.455289 
39680000 0.00023140982   -0.1817964 6.7629006e-05 6.7629006e-05            0 0.00034341625 0.00041104526   -1.4541668    55.532204 
39690000 0.00032061876    0.1272952            0            0            0 0.00047580389 0.00047580389    1.0189821    55.184227 
39700000 0.00038573941 -0.056969777            0            0            0 0.00057244409 0.00057244409  -0.45525052    55.345414 
39702000 0.00021968175  -0.18891581            0            0            0 0.00032601159 0.00032601159   -1.5112152    55.569324 
Loop time of 133.351 on 1 procs for 100000 steps with 7039 atoms

Performance: 1295829.368 tau/day, 749.901 timesteps/s
100.0% CPU use with 1 MPI tasks x 1 OpenMP threads

MPI task timing breakdown:
Section |  min time  |  avg time  |  max time  |%varavg| %total
---------------------------------------------------------------
Pair    | 63.043     | 63.043     | 63.043     |   0.0 | 47.28
Bond    | 0.019746   | 0.019746   | 0.019746   |   0.0 |  0.01
Neigh   | 13.661     | 13.661     | 13.661     |   0.0 | 10.24
Comm    | 16.385     | 16.385     | 16.385     |   0.0 | 12.29
Output  | 0.0040493  | 0.0040493  | 0.0040493  |   0.0 |  0.00
Modify  | 28.029     | 28.029     | 28.029     |   0.0 | 21.02
Other   |            | 12.21      |            |       |  9.16

Nlocal:    7039 ave 7039 max 7039 min
Histogram: 1 0 0 0 0 0 0 0 0 0
Nghost:    11367 ave 11367 max 11367 min
Histogram: 1 0 0 0 0 0 0 0 0 0
Neighs:    7160 ave 7160 max 7160 min
Histogram: 1 0 0 0 0 0 0 0 0 0

Total # of neighbors = 7160
Ave neighs/atom = 1.01719
Ave special neighs/atom = 0
Neighbor list builds = 815
Dangerous builds = 0
Setting up Verlet run ...
  Unit style    : lj
  Current step  : 39702000
  Time step     : 0.02
Per MPI rank memory allocation (min/avg/max) = 16.91 | 16.91 | 16.91 Mbytes
Step Temp Press PotEng E_vdwl E_coul KinEng TotEng Enthalpy v_zc 
39702000 0.00021968175 2.7163774e-05            0            0            0 0.00032601159 0.00032601159 0.00054335265    55.569324 
39710000 0.00012731837  -0.11361685 3.9520334e-05 3.9520334e-05            0 0.0001889427 0.00022846303  -0.90883548    55.901794 
39720000 0.00020398347 -0.021617068            0            0            0 0.00030271507 0.00030271507   -0.1726584    56.360014 
39730000 0.00020752228   0.10873579            0            0            0 0.00030796672 0.00030796672   0.87031784    55.843046 
39740000 0.00019092175  -0.14479335            0            0            0 0.00028333124 0.00028333124   -1.1582281    56.062111 
39750000 0.00044382055    0.2482409 3.1769087e-05 3.1769087e-05            0 0.00065863751 0.00069040659    1.9868997    55.936618 
39760000 0.00062412226  0.086122607            0            0            0 0.00092620842 0.00092620842   0.69000495    56.276079 
39770000 0.00027931421   0.25790495            0            0            0 0.00041450721 0.00041450721    2.0639472    56.466631 
39780000 0.00037393757  -0.18377122            0            0            0 0.00055492994 0.00055492994   -1.4698237    56.979482 
39790000 0.00012438888  0.046440568            0            0            0 0.00018459529 0.00018459529   0.37176192    57.281006 
39800000 0.00027262631  -0.14411903            0            0            0 0.00040458225 0.00040458225   -1.1527115    57.485797 
39802000 0.00032881068   0.17070652            0            0            0 0.00048796084 0.00048796084    1.3663341    57.643453 
Loop time of 131.535 on 1 procs for 100000 steps with 7039 atoms

Performance: 1313718.776 tau/day, 760.254 timesteps/s
100.0% CPU use with 1 MPI tasks x 1 OpenMP threads

MPI task timing breakdown:
Section |  min time  |  avg time  |  max time  |%varavg| %total
---------------------------------------------------------------
Pair    | 62.698     | 62.698     | 62.698     |   0.0 | 47.67
Bond    | 0.019741   | 0.019741   | 0.019741   |   0.0 |  0.02
Neigh   | 13.477     | 13.477     | 13.477     |   0.0 | 10.25
Comm    | 16.073     | 16.073     | 16.073     |   0.0 | 12.22
Output  | 0.0041869  | 0.0041869  | 0.0041869  |   0.0 |  0.00
Modify  | 27.566     | 27.566     | 27.566     |   0.0 | 20.96
Other   |            | 11.7       |            |       |  8.89

Nlocal:    7039 ave 7039 max 7039 min
Histogram: 1 0 0 0 0 0 0 0 0 0
Nghost:    11375 ave 11375 max 11375 min
Histogram: 1 0 0 0 0 0 0 0 0 0
Neighs:    7018 ave 7018 max 7018 min
Histogram: 1 0 0 0 0 0 0 0 0 0

Total # of neighbors = 7018
Ave neighs/atom = 0.997017
Ave special neighs/atom = 0
Neighbor list builds = 801
Dangerous builds = 0
