LAMMPS Description

7039 atoms

2 atom types

-8	8 xlo xhi
-8	8 ylo yhi
-110	110 zlo zhi

Masses

1	1.00
2	1.00

Atoms

1 1 1 0 -1.09918 -0.946312 -3.33537 
2 1 1 0 -0.945499 0.00316136 -3.05747 
3 1 1 0 -1.10734 0.276056 -2.11037 
4 1 1 0 -0.966025 1.165 -1.663 
5 1 1 0 -0.483657 1.30421 -0.792999 
6 1 1 2.4274 -0.724183 2.18579 -0.36142 
7 1 1 0 -0.0573407 2.53527 0.301475 
8 1 1 0 -0.219972 3.2029 1.03963 
9 1 1 0 0.257659 3.92921 0.535949 
10 1 1 0 -0.385499 3.93448 -0.22063 
11 1 1 2.4274 0.19687 3.42185 -0.838262 
12 1 1 0 -0.237078 2.63448 -1.27984 
13 1 1 0 0.33608 1.91579 -1.66852 
14 1 1 0 0.0163435 1.2829 -2.36958 
15 1 1 0 0.324765 0.333161 -2.33616 
16 1 1 -2.4274 0.204501 -0.438944 -2.95826 
17 1 1 0 -0.0407618 -1.25368 -2.45352 
18 1 1 -2.4274 -0.519709 -2.12342 -2.50958 
19 1 1 0 -1.21418 -2.41684 -1.848 
20 1 1 0 -0.628657 -3.20368 -1.65958 
21 1 1 -2.4274 0.0929224 -2.6121 -1.30274 
22 1 1 0 0.251343 -2.6171 -0.323788 
23 1 1 0 0.222396 -1.79158 0.237001 
24 1 1 -2.4274 1.2074 -1.91763 0.40858 
25 1 1 0 1.3545 -1.85894 -0.582735 
26 1 1 0 0.813186 -1.02947 -0.667999 
27 1 1 2.4274 1.35608 -0.603681 0.0577909 
28 1 1 0 2.19766 -0.854733 -0.43063 
29 1 1 2.4274 1.8495 -0.425786 -1.27589 
30 1 1 0 1.65476 0.410793 -0.75563 
31 1 1 0 2.58582 0.394477 -0.368788 
32 1 1 -2.4274 2.96713 0.266582 -1.28247 
33 1 1 2.4274 2.4645 1.04869 -1.65352 
34 1 1 -2.4274 2.42976 1.72053 -0.90642 
35 1 1 0 3.13213 1.38421 -0.28563 
36 1 1 0 2.5745 1.23869 0.52437 
37 1 1 0 2.8995 0.458425 1.07305 
38 1 1 0 2.20371 -0.26026 1.15069 
39 1 1 -2.4274 2.26845 -0.248944 2.15226 
40 1 1 0 1.91976 0.691582 2.15674 
41 1 1 0 1.13029 0.491056 1.56753 
42 1 1 2.4274 0.199238 0.347372 1.91148 
43 1 1 0 -0.442341 0.148425 1.15516 
44 1 1 0 -1.42339 0.30553 1.28542 
45 1 1 0 -2.18866 0.0139508 0.701738 
46 1 1 0 -3.15787 0.0352666 0.93858 
47 1 1 0 -2.90629 0.232898 1.87858 
48 1 1 2.4274 -2.34024 -0.582365 2.00437 
49 1 1 0 -1.3405 -0.562365 2.13858 
50 1 1 0 -0.951814 -1.18105 1.44621 
51 1 1 -2.4274 -0.375762 -1.93473 1.782 
52 1 1 -2.4274 0.478712 -2.19447 1.31516 
53 1 1 0 0.29608 -3.17026 1.13384 
54 1 1 2.4274 -0.614446 -3.04473 0.726212 
55 1 1 0 -0.754972 -2.84658 -0.250893 
56 1 1 0 -1.27602 -2.07894 -0.643262 
57 1 1 0 -1.97866 -2.74368 -0.918788 
58 1 1 -2.4274 -2.11181 -2.99236 0.0464751 
59 1 1 0 -2.46418 -2.06842 0.193317 
60 1 1 0 -2.99418 -2.015 -0.662472 
61 1 1 0 -2.43655 -1.24894 -1.00695 
62 1 1 0 -2.72681 -1.11473 -1.96931 
63 1 1 2.4274 -2.31234 -0.568944 -2.70431 
64 1 1 -2.4274 -2.24629 0.408951 -2.53563 
65 1 1 0 -2.37471 0.327372 -1.55168 
66 1 1 0 -1.90287 0.987635 -0.954051 
67 1 1 0 -1.39313 0.684214 -0.141157 
68 1 1 0 -1.12208 1.34685 0.561475 
69 1 1 0 -0.16892 1.35158 0.871738 
70 1 1 0 0.00950139 1.67369 1.80463 
71 1 1 0 0.974238 1.70079 2.09595 
72 1 1 2.4274 1.24161 1.35921 2.99463 
73 1 1 0 2.1645 1.70869 3.20095 
74 1 1 2.4274 2.74476 1.26132 3.87805 
75 1 1 0 3.00055 1.98448 4.51832 
76 1 1 0 2.61319 2.84316 4.84937 
77 2 2 -0.012137 5.23684 0 -105.263 
78 2 2 -0.012137 5.14136 0.995432 -105.263 
79 2 2 -0.012137 4.85841 1.95457 -105.263 
80 2 2 -0.012137 4.39831 2.84243 -105.263 
81 2 2 -0.012137 3.77782 3.62665 -105.263 
82 2 2 -0.012137 3.01958 4.27862 -105.263 
83 2 2 -0.012137 2.15124 4.77459 -105.263 
84 2 2 -0.012137 1.20445 5.09645 -105.263 
85 2 2 -0.012137 0.213748 5.23248 -105.263 
86 2 2 -0.012137 -0.784751 5.17771 -105.263 
87 2 2 -0.012137 -1.75464 4.93414 -105.263 
88 2 2 -0.012137 -2.66054 4.51066 -105.263 
89 2 2 -0.012137 -3.46943 3.9227 -105.263 
90 2 2 -0.012137 -4.15181 3.1917 -105.263 
91 2 2 -0.012137 -4.6828 2.34433 -105.263 
92 2 2 -0.012137 -5.04304 1.41147 -105.263 
93 2 2 -0.012137 -5.21939 0.42714 -105.263 
94 2 2 -0.012137 -5.20543 -0.572762 -105.263 
95 2 2 -0.012137 -5.00165 -1.55178 -105.263 
96 2 2 -0.012137 -4.61549 -2.47421 -105.263 
97 2 2 -0.012137 -4.06104 -3.30643 -105.263 
98 2 2 -0.012137 -3.35851 -4.01808 -105.263 
99 2 2 -0.012137 -2.53351 -4.58321 -105.263 
100 2 2 -0.012137 -1.61613 -4.98123 -105.263 
101 2 2 -0.012137 -0.63982 -5.19761 -105.263 
102 2 2 -0.012137 0.359819 -5.22447 -105.263 
103 2 2 -0.012137 1.34634 -5.06082 -105.263 
104 2 2 -0.012137 2.28376 -4.71264 -105.263 
105 2 2 -0.012137 3.13792 -4.19261 -105.263 
106 2 2 -0.012137 3.87765 -3.51971 -105.263 
107 2 2 -0.012137 4.47599 -2.71847 -105.263 
108 2 2 -0.012137 4.91111 -1.8181 -105.263 
109 2 2 -0.012137 5.16716 -0.851434 -105.263 
110 2 2 -0.012137 5.23684 0 -104.263 
111 2 2 -0.012137 5.14136 0.995432 -104.263 
112 2 2 -0.012137 4.85841 1.95457 -104.263 
113 2 2 -0.012137 4.39831 2.84243 -104.263 
114 2 2 -0.012137 3.77782 3.62665 -104.263 
115 2 2 -0.012137 3.01958 4.27862 -104.263 
116 2 2 -0.012137 2.15124 4.77459 -104.263 
117 2 2 -0.012137 1.20445 5.09645 -104.263 
118 2 2 -0.012137 0.213748 5.23248 -104.263 
119 2 2 -0.012137 -0.784751 5.17771 -104.263 
120 2 2 -0.012137 -1.75464 4.93414 -104.263 
121 2 2 -0.012137 -2.66054 4.51066 -104.263 
122 2 2 -0.012137 -3.46943 3.9227 -104.263 
123 2 2 -0.012137 -4.15181 3.1917 -104.263 
124 2 2 -0.012137 -4.6828 2.34433 -104.263 
125 2 2 -0.012137 -5.04304 1.41147 -104.263 
126 2 2 -0.012137 -5.21939 0.42714 -104.263 
127 2 2 -0.012137 -5.20543 -0.572762 -104.263 
128 2 2 -0.012137 -5.00165 -1.55178 -104.263 
129 2 2 -0.012137 -4.61549 -2.47421 -104.263 
130 2 2 -0.012137 -4.06104 -3.30643 -104.263 
131 2 2 -0.012137 -3.35851 -4.01808 -104.263 
132 2 2 -0.012137 -2.53351 -4.58321 -104.263 
133 2 2 -0.012137 -1.61613 -4.98123 -104.263 
134 2 2 -0.012137 -0.63982 -5.19761 -104.263 
135 2 2 -0.012137 0.359819 -5.22447 -104.263 
136 2 2 -0.012137 1.34634 -5.06082 -104.263 
137 2 2 -0.012137 2.28376 -4.71264 -104.263 
138 2 2 -0.012137 3.13792 -4.19261 -104.263 
139 2 2 -0.012137 3.87765 -3.51971 -104.263 
140 2 2 -0.012137 4.47599 -2.71847 -104.263 
141 2 2 -0.012137 4.91111 -1.8181 -104.263 
142 2 2 -0.012137 5.16716 -0.851434 -104.263 
143 2 2 -0.012137 5.23684 0 -103.263 
144 2 2 -0.012137 5.14136 0.995432 -103.263 
145 2 2 -0.012137 4.85841 1.95457 -103.263 
146 2 2 -0.012137 4.39831 2.84243 -103.263 
147 2 2 -0.012137 3.77782 3.62665 -103.263 
148 2 2 -0.012137 3.01958 4.27862 -103.263 
149 2 2 -0.012137 2.15124 4.77459 -103.263 
150 2 2 -0.012137 1.20445 5.09645 -103.263 
151 2 2 -0.012137 0.213748 5.23248 -103.263 
152 2 2 -0.012137 -0.784751 5.17771 -103.263 
153 2 2 -0.012137 -1.75464 4.93414 -103.263 
154 2 2 -0.012137 -2.66054 4.51066 -103.263 
155 2 2 -0.012137 -3.46943 3.9227 -103.263 
156 2 2 -0.012137 -4.15181 3.1917 -103.263 
157 2 2 -0.012137 -4.6828 2.34433 -103.263 
158 2 2 -0.012137 -5.04304 1.41147 -103.263 
159 2 2 -0.012137 -5.21939 0.42714 -103.263 
160 2 2 -0.012137 -5.20543 -0.572762 -103.263 
161 2 2 -0.012137 -5.00165 -1.55178 -103.263 
162 2 2 -0.012137 -4.61549 -2.47421 -103.263 
163 2 2 -0.012137 -4.06104 -3.30643 -103.263 
164 2 2 -0.012137 -3.35851 -4.01808 -103.263 
165 2 2 -0.012137 -2.53351 -4.58321 -103.263 
166 2 2 -0.012137 -1.61613 -4.98123 -103.263 
167 2 2 -0.012137 -0.63982 -5.19761 -103.263 
168 2 2 -0.012137 0.359819 -5.22447 -103.263 
169 2 2 -0.012137 1.34634 -5.06082 -103.263 
170 2 2 -0.012137 2.28376 -4.71264 -103.263 
171 2 2 -0.012137 3.13792 -4.19261 -103.263 
172 2 2 -0.012137 3.87765 -3.51971 -103.263 
173 2 2 -0.012137 4.47599 -2.71847 -103.263 
174 2 2 -0.012137 4.91111 -1.8181 -103.263 
175 2 2 -0.012137 5.16716 -0.851434 -103.263 
176 2 2 -0.012137 5.23684 0 -102.263 
177 2 2 -0.012137 5.14136 0.995432 -102.263 
178 2 2 -0.012137 4.85841 1.95457 -102.263 
179 2 2 -0.012137 4.39831 2.84243 -102.263 
180 2 2 -0.012137 3.77782 3.62665 -102.263 
181 2 2 -0.012137 3.01958 4.27862 -102.263 
182 2 2 -0.012137 2.15124 4.77459 -102.263 
183 2 2 -0.012137 1.20445 5.09645 -102.263 
184 2 2 -0.012137 0.213748 5.23248 -102.263 
185 2 2 -0.012137 -0.784751 5.17771 -102.263 
186 2 2 -0.012137 -1.75464 4.93414 -102.263 
187 2 2 -0.012137 -2.66054 4.51066 -102.263 
188 2 2 -0.012137 -3.46943 3.9227 -102.263 
189 2 2 -0.012137 -4.15181 3.1917 -102.263 
190 2 2 -0.012137 -4.6828 2.34433 -102.263 
191 2 2 -0.012137 -5.04304 1.41147 -102.263 
192 2 2 -0.012137 -5.21939 0.42714 -102.263 
193 2 2 -0.012137 -5.20543 -0.572762 -102.263 
194 2 2 -0.012137 -5.00165 -1.55178 -102.263 
195 2 2 -0.012137 -4.61549 -2.47421 -102.263 
196 2 2 -0.012137 -4.06104 -3.30643 -102.263 
197 2 2 -0.012137 -3.35851 -4.01808 -102.263 
198 2 2 -0.012137 -2.53351 -4.58321 -102.263 
199 2 2 -0.012137 -1.61613 -4.98123 -102.263 
200 2 2 -0.012137 -0.63982 -5.19761 -102.263 
201 2 2 -0.012137 0.359819 -5.22447 -102.263 
202 2 2 -0.012137 1.34634 -5.06082 -102.263 
203 2 2 -0.012137 2.28376 -4.71264 -102.263 
204 2 2 -0.012137 3.13792 -4.19261 -102.263 
205 2 2 -0.012137 3.87765 -3.51971 -102.263 
206 2 2 -0.012137 4.47599 -2.71847 -102.263 
207 2 2 -0.012137 4.91111 -1.8181 -102.263 
208 2 2 -0.012137 5.16716 -0.851434 -102.263 
209 2 2 -0.012137 5.23684 0 -101.263 
210 2 2 -0.012137 5.14136 0.995432 -101.263 
211 2 2 -0.012137 4.85841 1.95457 -101.263 
212 2 2 -0.012137 4.39831 2.84243 -101.263 
213 2 2 -0.012137 3.77782 3.62665 -101.263 
214 2 2 -0.012137 3.01958 4.27862 -101.263 
215 2 2 -0.012137 2.15124 4.77459 -101.263 
216 2 2 -0.012137 1.20445 5.09645 -101.263 
217 2 2 -0.012137 0.213748 5.23248 -101.263 
218 2 2 -0.012137 -0.784751 5.17771 -101.263 
219 2 2 -0.012137 -1.75464 4.93414 -101.263 
220 2 2 -0.012137 -2.66054 4.51066 -101.263 
221 2 2 -0.012137 -3.46943 3.9227 -101.263 
222 2 2 -0.012137 -4.15181 3.1917 -101.263 
223 2 2 -0.012137 -4.6828 2.34433 -101.263 
224 2 2 -0.012137 -5.04304 1.41147 -101.263 
225 2 2 -0.012137 -5.21939 0.42714 -101.263 
226 2 2 -0.012137 -5.20543 -0.572762 -101.263 
227 2 2 -0.012137 -5.00165 -1.55178 -101.263 
228 2 2 -0.012137 -4.61549 -2.47421 -101.263 
229 2 2 -0.012137 -4.06104 -3.30643 -101.263 
230 2 2 -0.012137 -3.35851 -4.01808 -101.263 
231 2 2 -0.012137 -2.53351 -4.58321 -101.263 
232 2 2 -0.012137 -1.61613 -4.98123 -101.263 
233 2 2 -0.012137 -0.63982 -5.19761 -101.263 
234 2 2 -0.012137 0.359819 -5.22447 -101.263 
235 2 2 -0.012137 1.34634 -5.06082 -101.263 
236 2 2 -0.012137 2.28376 -4.71264 -101.263 
237 2 2 -0.012137 3.13792 -4.19261 -101.263 
238 2 2 -0.012137 3.87765 -3.51971 -101.263 
239 2 2 -0.012137 4.47599 -2.71847 -101.263 
240 2 2 -0.012137 4.91111 -1.8181 -101.263 
241 2 2 -0.012137 5.16716 -0.851434 -101.263 
242 2 2 -0.012137 5.23684 0 -100.263 
243 2 2 -0.012137 5.14136 0.995432 -100.263 
244 2 2 -0.012137 4.85841 1.95457 -100.263 
245 2 2 -0.012137 4.39831 2.84243 -100.263 
246 2 2 -0.012137 3.77782 3.62665 -100.263 
247 2 2 -0.012137 3.01958 4.27862 -100.263 
248 2 2 -0.012137 2.15124 4.77459 -100.263 
249 2 2 -0.012137 1.20445 5.09645 -100.263 
250 2 2 -0.012137 0.213748 5.23248 -100.263 
251 2 2 -0.012137 -0.784751 5.17771 -100.263 
252 2 2 -0.012137 -1.75464 4.93414 -100.263 
253 2 2 -0.012137 -2.66054 4.51066 -100.263 
254 2 2 -0.012137 -3.46943 3.9227 -100.263 
255 2 2 -0.012137 -4.15181 3.1917 -100.263 
256 2 2 -0.012137 -4.6828 2.34433 -100.263 
257 2 2 -0.012137 -5.04304 1.41147 -100.263 
258 2 2 -0.012137 -5.21939 0.42714 -100.263 
259 2 2 -0.012137 -5.20543 -0.572762 -100.263 
260 2 2 -0.012137 -5.00165 -1.55178 -100.263 
261 2 2 -0.012137 -4.61549 -2.47421 -100.263 
262 2 2 -0.012137 -4.06104 -3.30643 -100.263 
263 2 2 -0.012137 -3.35851 -4.01808 -100.263 
264 2 2 -0.012137 -2.53351 -4.58321 -100.263 
265 2 2 -0.012137 -1.61613 -4.98123 -100.263 
266 2 2 -0.012137 -0.63982 -5.19761 -100.263 
267 2 2 -0.012137 0.359819 -5.22447 -100.263 
268 2 2 -0.012137 1.34634 -5.06082 -100.263 
269 2 2 -0.012137 2.28376 -4.71264 -100.263 
270 2 2 -0.012137 3.13792 -4.19261 -100.263 
271 2 2 -0.012137 3.87765 -3.51971 -100.263 
272 2 2 -0.012137 4.47599 -2.71847 -100.263 
273 2 2 -0.012137 4.91111 -1.8181 -100.263 
274 2 2 -0.012137 5.16716 -0.851434 -100.263 
275 2 2 -0.012137 5.23684 0 -99.2632 
276 2 2 -0.012137 5.14136 0.995432 -99.2632 
277 2 2 -0.012137 4.85841 1.95457 -99.2632 
278 2 2 -0.012137 4.39831 2.84243 -99.2632 
279 2 2 -0.012137 3.77782 3.62665 -99.2632 
280 2 2 -0.012137 3.01958 4.27862 -99.2632 
281 2 2 -0.012137 2.15124 4.77459 -99.2632 
282 2 2 -0.012137 1.20445 5.09645 -99.2632 
283 2 2 -0.012137 0.213748 5.23248 -99.2632 
284 2 2 -0.012137 -0.784751 5.17771 -99.2632 
285 2 2 -0.012137 -1.75464 4.93414 -99.2632 
286 2 2 -0.012137 -2.66054 4.51066 -99.2632 
287 2 2 -0.012137 -3.46943 3.9227 -99.2632 
288 2 2 -0.012137 -4.15181 3.1917 -99.2632 
289 2 2 -0.012137 -4.6828 2.34433 -99.2632 
290 2 2 -0.012137 -5.04304 1.41147 -99.2632 
291 2 2 -0.012137 -5.21939 0.42714 -99.2632 
292 2 2 -0.012137 -5.20543 -0.572762 -99.2632 
293 2 2 -0.012137 -5.00165 -1.55178 -99.2632 
294 2 2 -0.012137 -4.61549 -2.47421 -99.2632 
295 2 2 -0.012137 -4.06104 -3.30643 -99.2632 
296 2 2 -0.012137 -3.35851 -4.01808 -99.2632 
297 2 2 -0.012137 -2.53351 -4.58321 -99.2632 
298 2 2 -0.012137 -1.61613 -4.98123 -99.2632 
299 2 2 -0.012137 -0.63982 -5.19761 -99.2632 
300 2 2 -0.012137 0.359819 -5.22447 -99.2632 
301 2 2 -0.012137 1.34634 -5.06082 -99.2632 
302 2 2 -0.012137 2.28376 -4.71264 -99.2632 
303 2 2 -0.012137 3.13792 -4.19261 -99.2632 
304 2 2 -0.012137 3.87765 -3.51971 -99.2632 
305 2 2 -0.012137 4.47599 -2.71847 -99.2632 
306 2 2 -0.012137 4.91111 -1.8181 -99.2632 
307 2 2 -0.012137 5.16716 -0.851434 -99.2632 
308 2 2 -0.012137 5.23684 0 -98.2632 
309 2 2 -0.012137 5.14136 0.995432 -98.2632 
310 2 2 -0.012137 4.85841 1.95457 -98.2632 
311 2 2 -0.012137 4.39831 2.84243 -98.2632 
312 2 2 -0.012137 3.77782 3.62665 -98.2632 
313 2 2 -0.012137 3.01958 4.27862 -98.2632 
314 2 2 -0.012137 2.15124 4.77459 -98.2632 
315 2 2 -0.012137 1.20445 5.09645 -98.2632 
316 2 2 -0.012137 0.213748 5.23248 -98.2632 
317 2 2 -0.012137 -0.784751 5.17771 -98.2632 
318 2 2 -0.012137 -1.75464 4.93414 -98.2632 
319 2 2 -0.012137 -2.66054 4.51066 -98.2632 
320 2 2 -0.012137 -3.46943 3.9227 -98.2632 
321 2 2 -0.012137 -4.15181 3.1917 -98.2632 
322 2 2 -0.012137 -4.6828 2.34433 -98.2632 
323 2 2 -0.012137 -5.04304 1.41147 -98.2632 
324 2 2 -0.012137 -5.21939 0.42714 -98.2632 
325 2 2 -0.012137 -5.20543 -0.572762 -98.2632 
326 2 2 -0.012137 -5.00165 -1.55178 -98.2632 
327 2 2 -0.012137 -4.61549 -2.47421 -98.2632 
328 2 2 -0.012137 -4.06104 -3.30643 -98.2632 
329 2 2 -0.012137 -3.35851 -4.01808 -98.2632 
330 2 2 -0.012137 -2.53351 -4.58321 -98.2632 
331 2 2 -0.012137 -1.61613 -4.98123 -98.2632 
332 2 2 -0.012137 -0.63982 -5.19761 -98.2632 
333 2 2 -0.012137 0.359819 -5.22447 -98.2632 
334 2 2 -0.012137 1.34634 -5.06082 -98.2632 
335 2 2 -0.012137 2.28376 -4.71264 -98.2632 
336 2 2 -0.012137 3.13792 -4.19261 -98.2632 
337 2 2 -0.012137 3.87765 -3.51971 -98.2632 
338 2 2 -0.012137 4.47599 -2.71847 -98.2632 
339 2 2 -0.012137 4.91111 -1.8181 -98.2632 
340 2 2 -0.012137 5.16716 -0.851434 -98.2632 
341 2 2 -0.012137 5.23684 0 -97.2632 
342 2 2 -0.012137 5.14136 0.995432 -97.2632 
343 2 2 -0.012137 4.85841 1.95457 -97.2632 
344 2 2 -0.012137 4.39831 2.84243 -97.2632 
345 2 2 -0.012137 3.77782 3.62665 -97.2632 
346 2 2 -0.012137 3.01958 4.27862 -97.2632 
347 2 2 -0.012137 2.15124 4.77459 -97.2632 
348 2 2 -0.012137 1.20445 5.09645 -97.2632 
349 2 2 -0.012137 0.213748 5.23248 -97.2632 
350 2 2 -0.012137 -0.784751 5.17771 -97.2632 
351 2 2 -0.012137 -1.75464 4.93414 -97.2632 
352 2 2 -0.012137 -2.66054 4.51066 -97.2632 
353 2 2 -0.012137 -3.46943 3.9227 -97.2632 
354 2 2 -0.012137 -4.15181 3.1917 -97.2632 
355 2 2 -0.012137 -4.6828 2.34433 -97.2632 
356 2 2 -0.012137 -5.04304 1.41147 -97.2632 
357 2 2 -0.012137 -5.21939 0.42714 -97.2632 
358 2 2 -0.012137 -5.20543 -0.572762 -97.2632 
359 2 2 -0.012137 -5.00165 -1.55178 -97.2632 
360 2 2 -0.012137 -4.61549 -2.47421 -97.2632 
361 2 2 -0.012137 -4.06104 -3.30643 -97.2632 
362 2 2 -0.012137 -3.35851 -4.01808 -97.2632 
363 2 2 -0.012137 -2.53351 -4.58321 -97.2632 
364 2 2 -0.012137 -1.61613 -4.98123 -97.2632 
365 2 2 -0.012137 -0.63982 -5.19761 -97.2632 
366 2 2 -0.012137 0.359819 -5.22447 -97.2632 
367 2 2 -0.012137 1.34634 -5.06082 -97.2632 
368 2 2 -0.012137 2.28376 -4.71264 -97.2632 
369 2 2 -0.012137 3.13792 -4.19261 -97.2632 
370 2 2 -0.012137 3.87765 -3.51971 -97.2632 
371 2 2 -0.012137 4.47599 -2.71847 -97.2632 
372 2 2 -0.012137 4.91111 -1.8181 -97.2632 
373 2 2 -0.012137 5.16716 -0.851434 -97.2632 
374 2 2 -0.012137 5.23684 0 -96.2632 
375 2 2 -0.012137 5.14136 0.995432 -96.2632 
376 2 2 -0.012137 4.85841 1.95457 -96.2632 
377 2 2 -0.012137 4.39831 2.84243 -96.2632 
378 2 2 -0.012137 3.77782 3.62665 -96.2632 
379 2 2 -0.012137 3.01958 4.27862 -96.2632 
380 2 2 -0.012137 2.15124 4.77459 -96.2632 
381 2 2 -0.012137 1.20445 5.09645 -96.2632 
382 2 2 -0.012137 0.213748 5.23248 -96.2632 
383 2 2 -0.012137 -0.784751 5.17771 -96.2632 
384 2 2 -0.012137 -1.75464 4.93414 -96.2632 
385 2 2 -0.012137 -2.66054 4.51066 -96.2632 
386 2 2 -0.012137 -3.46943 3.9227 -96.2632 
387 2 2 -0.012137 -4.15181 3.1917 -96.2632 
388 2 2 -0.012137 -4.6828 2.34433 -96.2632 
389 2 2 -0.012137 -5.04304 1.41147 -96.2632 
390 2 2 -0.012137 -5.21939 0.42714 -96.2632 
391 2 2 -0.012137 -5.20543 -0.572762 -96.2632 
392 2 2 -0.012137 -5.00165 -1.55178 -96.2632 
393 2 2 -0.012137 -4.61549 -2.47421 -96.2632 
394 2 2 -0.012137 -4.06104 -3.30643 -96.2632 
395 2 2 -0.012137 -3.35851 -4.01808 -96.2632 
396 2 2 -0.012137 -2.53351 -4.58321 -96.2632 
397 2 2 -0.012137 -1.61613 -4.98123 -96.2632 
398 2 2 -0.012137 -0.63982 -5.19761 -96.2632 
399 2 2 -0.012137 0.359819 -5.22447 -96.2632 
400 2 2 -0.012137 1.34634 -5.06082 -96.2632 
401 2 2 -0.012137 2.28376 -4.71264 -96.2632 
402 2 2 -0.012137 3.13792 -4.19261 -96.2632 
403 2 2 -0.012137 3.87765 -3.51971 -96.2632 
404 2 2 -0.012137 4.47599 -2.71847 -96.2632 
405 2 2 -0.012137 4.91111 -1.8181 -96.2632 
406 2 2 -0.012137 5.16716 -0.851434 -96.2632 
407 2 2 -0.012137 5.23684 0 -95.2632 
408 2 2 -0.012137 5.14136 0.995432 -95.2632 
409 2 2 -0.012137 4.85841 1.95457 -95.2632 
410 2 2 -0.012137 4.39831 2.84243 -95.2632 
411 2 2 -0.012137 3.77782 3.62665 -95.2632 
412 2 2 -0.012137 3.01958 4.27862 -95.2632 
413 2 2 -0.012137 2.15124 4.77459 -95.2632 
414 2 2 -0.012137 1.20445 5.09645 -95.2632 
415 2 2 -0.012137 0.213748 5.23248 -95.2632 
416 2 2 -0.012137 -0.784751 5.17771 -95.2632 
417 2 2 -0.012137 -1.75464 4.93414 -95.2632 
418 2 2 -0.012137 -2.66054 4.51066 -95.2632 
419 2 2 -0.012137 -3.46943 3.9227 -95.2632 
420 2 2 -0.012137 -4.15181 3.1917 -95.2632 
421 2 2 -0.012137 -4.6828 2.34433 -95.2632 
422 2 2 -0.012137 -5.04304 1.41147 -95.2632 
423 2 2 -0.012137 -5.21939 0.42714 -95.2632 
424 2 2 -0.012137 -5.20543 -0.572762 -95.2632 
425 2 2 -0.012137 -5.00165 -1.55178 -95.2632 
426 2 2 -0.012137 -4.61549 -2.47421 -95.2632 
427 2 2 -0.012137 -4.06104 -3.30643 -95.2632 
428 2 2 -0.012137 -3.35851 -4.01808 -95.2632 
429 2 2 -0.012137 -2.53351 -4.58321 -95.2632 
430 2 2 -0.012137 -1.61613 -4.98123 -95.2632 
431 2 2 -0.012137 -0.63982 -5.19761 -95.2632 
432 2 2 -0.012137 0.359819 -5.22447 -95.2632 
433 2 2 -0.012137 1.34634 -5.06082 -95.2632 
434 2 2 -0.012137 2.28376 -4.71264 -95.2632 
435 2 2 -0.012137 3.13792 -4.19261 -95.2632 
436 2 2 -0.012137 3.87765 -3.51971 -95.2632 
437 2 2 -0.012137 4.47599 -2.71847 -95.2632 
438 2 2 -0.012137 4.91111 -1.8181 -95.2632 
439 2 2 -0.012137 5.16716 -0.851434 -95.2632 
440 2 2 -0.012137 5.23684 0 -94.2632 
441 2 2 -0.012137 5.14136 0.995432 -94.2632 
442 2 2 -0.012137 4.85841 1.95457 -94.2632 
443 2 2 -0.012137 4.39831 2.84243 -94.2632 
444 2 2 -0.012137 3.77782 3.62665 -94.2632 
445 2 2 -0.012137 3.01958 4.27862 -94.2632 
446 2 2 -0.012137 2.15124 4.77459 -94.2632 
447 2 2 -0.012137 1.20445 5.09645 -94.2632 
448 2 2 -0.012137 0.213748 5.23248 -94.2632 
449 2 2 -0.012137 -0.784751 5.17771 -94.2632 
450 2 2 -0.012137 -1.75464 4.93414 -94.2632 
451 2 2 -0.012137 -2.66054 4.51066 -94.2632 
452 2 2 -0.012137 -3.46943 3.9227 -94.2632 
453 2 2 -0.012137 -4.15181 3.1917 -94.2632 
454 2 2 -0.012137 -4.6828 2.34433 -94.2632 
455 2 2 -0.012137 -5.04304 1.41147 -94.2632 
456 2 2 -0.012137 -5.21939 0.42714 -94.2632 
457 2 2 -0.012137 -5.20543 -0.572762 -94.2632 
458 2 2 -0.012137 -5.00165 -1.55178 -94.2632 
459 2 2 -0.012137 -4.61549 -2.47421 -94.2632 
460 2 2 -0.012137 -4.06104 -3.30643 -94.2632 
461 2 2 -0.012137 -3.35851 -4.01808 -94.2632 
462 2 2 -0.012137 -2.53351 -4.58321 -94.2632 
463 2 2 -0.012137 -1.61613 -4.98123 -94.2632 
464 2 2 -0.012137 -0.63982 -5.19761 -94.2632 
465 2 2 -0.012137 0.359819 -5.22447 -94.2632 
466 2 2 -0.012137 1.34634 -5.06082 -94.2632 
467 2 2 -0.012137 2.28376 -4.71264 -94.2632 
468 2 2 -0.012137 3.13792 -4.19261 -94.2632 
469 2 2 -0.012137 3.87765 -3.51971 -94.2632 
470 2 2 -0.012137 4.47599 -2.71847 -94.2632 
471 2 2 -0.012137 4.91111 -1.8181 -94.2632 
472 2 2 -0.012137 5.16716 -0.851434 -94.2632 
473 2 2 -0.012137 5.23684 0 -93.2632 
474 2 2 -0.012137 5.14136 0.995432 -93.2632 
475 2 2 -0.012137 4.85841 1.95457 -93.2632 
476 2 2 -0.012137 4.39831 2.84243 -93.2632 
477 2 2 -0.012137 3.77782 3.62665 -93.2632 
478 2 2 -0.012137 3.01958 4.27862 -93.2632 
479 2 2 -0.012137 2.15124 4.77459 -93.2632 
480 2 2 -0.012137 1.20445 5.09645 -93.2632 
481 2 2 -0.012137 0.213748 5.23248 -93.2632 
482 2 2 -0.012137 -0.784751 5.17771 -93.2632 
483 2 2 -0.012137 -1.75464 4.93414 -93.2632 
484 2 2 -0.012137 -2.66054 4.51066 -93.2632 
485 2 2 -0.012137 -3.46943 3.9227 -93.2632 
486 2 2 -0.012137 -4.15181 3.1917 -93.2632 
487 2 2 -0.012137 -4.6828 2.34433 -93.2632 
488 2 2 -0.012137 -5.04304 1.41147 -93.2632 
489 2 2 -0.012137 -5.21939 0.42714 -93.2632 
490 2 2 -0.012137 -5.20543 -0.572762 -93.2632 
491 2 2 -0.012137 -5.00165 -1.55178 -93.2632 
492 2 2 -0.012137 -4.61549 -2.47421 -93.2632 
493 2 2 -0.012137 -4.06104 -3.30643 -93.2632 
494 2 2 -0.012137 -3.35851 -4.01808 -93.2632 
495 2 2 -0.012137 -2.53351 -4.58321 -93.2632 
496 2 2 -0.012137 -1.61613 -4.98123 -93.2632 
497 2 2 -0.012137 -0.63982 -5.19761 -93.2632 
498 2 2 -0.012137 0.359819 -5.22447 -93.2632 
499 2 2 -0.012137 1.34634 -5.06082 -93.2632 
500 2 2 -0.012137 2.28376 -4.71264 -93.2632 
501 2 2 -0.012137 3.13792 -4.19261 -93.2632 
502 2 2 -0.012137 3.87765 -3.51971 -93.2632 
503 2 2 -0.012137 4.47599 -2.71847 -93.2632 
504 2 2 -0.012137 4.91111 -1.8181 -93.2632 
505 2 2 -0.012137 5.16716 -0.851434 -93.2632 
506 2 2 -0.012137 5.23684 0 -92.2632 
507 2 2 -0.012137 5.14136 0.995432 -92.2632 
508 2 2 -0.012137 4.85841 1.95457 -92.2632 
509 2 2 -0.012137 4.39831 2.84243 -92.2632 
510 2 2 -0.012137 3.77782 3.62665 -92.2632 
511 2 2 -0.012137 3.01958 4.27862 -92.2632 
512 2 2 -0.012137 2.15124 4.77459 -92.2632 
513 2 2 -0.012137 1.20445 5.09645 -92.2632 
514 2 2 -0.012137 0.213748 5.23248 -92.2632 
515 2 2 -0.012137 -0.784751 5.17771 -92.2632 
516 2 2 -0.012137 -1.75464 4.93414 -92.2632 
517 2 2 -0.012137 -2.66054 4.51066 -92.2632 
518 2 2 -0.012137 -3.46943 3.9227 -92.2632 
519 2 2 -0.012137 -4.15181 3.1917 -92.2632 
520 2 2 -0.012137 -4.6828 2.34433 -92.2632 
521 2 2 -0.012137 -5.04304 1.41147 -92.2632 
522 2 2 -0.012137 -5.21939 0.42714 -92.2632 
523 2 2 -0.012137 -5.20543 -0.572762 -92.2632 
524 2 2 -0.012137 -5.00165 -1.55178 -92.2632 
525 2 2 -0.012137 -4.61549 -2.47421 -92.2632 
526 2 2 -0.012137 -4.06104 -3.30643 -92.2632 
527 2 2 -0.012137 -3.35851 -4.01808 -92.2632 
528 2 2 -0.012137 -2.53351 -4.58321 -92.2632 
529 2 2 -0.012137 -1.61613 -4.98123 -92.2632 
530 2 2 -0.012137 -0.63982 -5.19761 -92.2632 
531 2 2 -0.012137 0.359819 -5.22447 -92.2632 
532 2 2 -0.012137 1.34634 -5.06082 -92.2632 
533 2 2 -0.012137 2.28376 -4.71264 -92.2632 
534 2 2 -0.012137 3.13792 -4.19261 -92.2632 
535 2 2 -0.012137 3.87765 -3.51971 -92.2632 
536 2 2 -0.012137 4.47599 -2.71847 -92.2632 
537 2 2 -0.012137 4.91111 -1.8181 -92.2632 
538 2 2 -0.012137 5.16716 -0.851434 -92.2632 
539 2 2 -0.012137 5.23684 0 -91.2632 
540 2 2 -0.012137 5.14136 0.995432 -91.2632 
541 2 2 -0.012137 4.85841 1.95457 -91.2632 
542 2 2 -0.012137 4.39831 2.84243 -91.2632 
543 2 2 -0.012137 3.77782 3.62665 -91.2632 
544 2 2 -0.012137 3.01958 4.27862 -91.2632 
545 2 2 -0.012137 2.15124 4.77459 -91.2632 
546 2 2 -0.012137 1.20445 5.09645 -91.2632 
547 2 2 -0.012137 0.213748 5.23248 -91.2632 
548 2 2 -0.012137 -0.784751 5.17771 -91.2632 
549 2 2 -0.012137 -1.75464 4.93414 -91.2632 
550 2 2 -0.012137 -2.66054 4.51066 -91.2632 
551 2 2 -0.012137 -3.46943 3.9227 -91.2632 
552 2 2 -0.012137 -4.15181 3.1917 -91.2632 
553 2 2 -0.012137 -4.6828 2.34433 -91.2632 
554 2 2 -0.012137 -5.04304 1.41147 -91.2632 
555 2 2 -0.012137 -5.21939 0.42714 -91.2632 
556 2 2 -0.012137 -5.20543 -0.572762 -91.2632 
557 2 2 -0.012137 -5.00165 -1.55178 -91.2632 
558 2 2 -0.012137 -4.61549 -2.47421 -91.2632 
559 2 2 -0.012137 -4.06104 -3.30643 -91.2632 
560 2 2 -0.012137 -3.35851 -4.01808 -91.2632 
561 2 2 -0.012137 -2.53351 -4.58321 -91.2632 
562 2 2 -0.012137 -1.61613 -4.98123 -91.2632 
563 2 2 -0.012137 -0.63982 -5.19761 -91.2632 
564 2 2 -0.012137 0.359819 -5.22447 -91.2632 
565 2 2 -0.012137 1.34634 -5.06082 -91.2632 
566 2 2 -0.012137 2.28376 -4.71264 -91.2632 
567 2 2 -0.012137 3.13792 -4.19261 -91.2632 
568 2 2 -0.012137 3.87765 -3.51971 -91.2632 
569 2 2 -0.012137 4.47599 -2.71847 -91.2632 
570 2 2 -0.012137 4.91111 -1.8181 -91.2632 
571 2 2 -0.012137 5.16716 -0.851434 -91.2632 
572 2 2 -0.012137 5.23684 0 -90.2632 
573 2 2 -0.012137 5.14136 0.995432 -90.2632 
574 2 2 -0.012137 4.85841 1.95457 -90.2632 
575 2 2 -0.012137 4.39831 2.84243 -90.2632 
576 2 2 -0.012137 3.77782 3.62665 -90.2632 
577 2 2 -0.012137 3.01958 4.27862 -90.2632 
578 2 2 -0.012137 2.15124 4.77459 -90.2632 
579 2 2 -0.012137 1.20445 5.09645 -90.2632 
580 2 2 -0.012137 0.213748 5.23248 -90.2632 
581 2 2 -0.012137 -0.784751 5.17771 -90.2632 
582 2 2 -0.012137 -1.75464 4.93414 -90.2632 
583 2 2 -0.012137 -2.66054 4.51066 -90.2632 
584 2 2 -0.012137 -3.46943 3.9227 -90.2632 
585 2 2 -0.012137 -4.15181 3.1917 -90.2632 
586 2 2 -0.012137 -4.6828 2.34433 -90.2632 
587 2 2 -0.012137 -5.04304 1.41147 -90.2632 
588 2 2 -0.012137 -5.21939 0.42714 -90.2632 
589 2 2 -0.012137 -5.20543 -0.572762 -90.2632 
590 2 2 -0.012137 -5.00165 -1.55178 -90.2632 
591 2 2 -0.012137 -4.61549 -2.47421 -90.2632 
592 2 2 -0.012137 -4.06104 -3.30643 -90.2632 
593 2 2 -0.012137 -3.35851 -4.01808 -90.2632 
594 2 2 -0.012137 -2.53351 -4.58321 -90.2632 
595 2 2 -0.012137 -1.61613 -4.98123 -90.2632 
596 2 2 -0.012137 -0.63982 -5.19761 -90.2632 
597 2 2 -0.012137 0.359819 -5.22447 -90.2632 
598 2 2 -0.012137 1.34634 -5.06082 -90.2632 
599 2 2 -0.012137 2.28376 -4.71264 -90.2632 
600 2 2 -0.012137 3.13792 -4.19261 -90.2632 
601 2 2 -0.012137 3.87765 -3.51971 -90.2632 
602 2 2 -0.012137 4.47599 -2.71847 -90.2632 
603 2 2 -0.012137 4.91111 -1.8181 -90.2632 
604 2 2 -0.012137 5.16716 -0.851434 -90.2632 
605 2 2 -0.012137 5.23684 0 -89.2632 
606 2 2 -0.012137 5.14136 0.995432 -89.2632 
607 2 2 -0.012137 4.85841 1.95457 -89.2632 
608 2 2 -0.012137 4.39831 2.84243 -89.2632 
609 2 2 -0.012137 3.77782 3.62665 -89.2632 
610 2 2 -0.012137 3.01958 4.27862 -89.2632 
611 2 2 -0.012137 2.15124 4.77459 -89.2632 
612 2 2 -0.012137 1.20445 5.09645 -89.2632 
613 2 2 -0.012137 0.213748 5.23248 -89.2632 
614 2 2 -0.012137 -0.784751 5.17771 -89.2632 
615 2 2 -0.012137 -1.75464 4.93414 -89.2632 
616 2 2 -0.012137 -2.66054 4.51066 -89.2632 
617 2 2 -0.012137 -3.46943 3.9227 -89.2632 
618 2 2 -0.012137 -4.15181 3.1917 -89.2632 
619 2 2 -0.012137 -4.6828 2.34433 -89.2632 
620 2 2 -0.012137 -5.04304 1.41147 -89.2632 
621 2 2 -0.012137 -5.21939 0.42714 -89.2632 
622 2 2 -0.012137 -5.20543 -0.572762 -89.2632 
623 2 2 -0.012137 -5.00165 -1.55178 -89.2632 
624 2 2 -0.012137 -4.61549 -2.47421 -89.2632 
625 2 2 -0.012137 -4.06104 -3.30643 -89.2632 
626 2 2 -0.012137 -3.35851 -4.01808 -89.2632 
627 2 2 -0.012137 -2.53351 -4.58321 -89.2632 
628 2 2 -0.012137 -1.61613 -4.98123 -89.2632 
629 2 2 -0.012137 -0.63982 -5.19761 -89.2632 
630 2 2 -0.012137 0.359819 -5.22447 -89.2632 
631 2 2 -0.012137 1.34634 -5.06082 -89.2632 
632 2 2 -0.012137 2.28376 -4.71264 -89.2632 
633 2 2 -0.012137 3.13792 -4.19261 -89.2632 
634 2 2 -0.012137 3.87765 -3.51971 -89.2632 
635 2 2 -0.012137 4.47599 -2.71847 -89.2632 
636 2 2 -0.012137 4.91111 -1.8181 -89.2632 
637 2 2 -0.012137 5.16716 -0.851434 -89.2632 
638 2 2 -0.012137 5.23684 0 -88.2632 
639 2 2 -0.012137 5.14136 0.995432 -88.2632 
640 2 2 -0.012137 4.85841 1.95457 -88.2632 
641 2 2 -0.012137 4.39831 2.84243 -88.2632 
642 2 2 -0.012137 3.77782 3.62665 -88.2632 
643 2 2 -0.012137 3.01958 4.27862 -88.2632 
644 2 2 -0.012137 2.15124 4.77459 -88.2632 
645 2 2 -0.012137 1.20445 5.09645 -88.2632 
646 2 2 -0.012137 0.213748 5.23248 -88.2632 
647 2 2 -0.012137 -0.784751 5.17771 -88.2632 
648 2 2 -0.012137 -1.75464 4.93414 -88.2632 
649 2 2 -0.012137 -2.66054 4.51066 -88.2632 
650 2 2 -0.012137 -3.46943 3.9227 -88.2632 
651 2 2 -0.012137 -4.15181 3.1917 -88.2632 
652 2 2 -0.012137 -4.6828 2.34433 -88.2632 
653 2 2 -0.012137 -5.04304 1.41147 -88.2632 
654 2 2 -0.012137 -5.21939 0.42714 -88.2632 
655 2 2 -0.012137 -5.20543 -0.572762 -88.2632 
656 2 2 -0.012137 -5.00165 -1.55178 -88.2632 
657 2 2 -0.012137 -4.61549 -2.47421 -88.2632 
658 2 2 -0.012137 -4.06104 -3.30643 -88.2632 
659 2 2 -0.012137 -3.35851 -4.01808 -88.2632 
660 2 2 -0.012137 -2.53351 -4.58321 -88.2632 
661 2 2 -0.012137 -1.61613 -4.98123 -88.2632 
662 2 2 -0.012137 -0.63982 -5.19761 -88.2632 
663 2 2 -0.012137 0.359819 -5.22447 -88.2632 
664 2 2 -0.012137 1.34634 -5.06082 -88.2632 
665 2 2 -0.012137 2.28376 -4.71264 -88.2632 
666 2 2 -0.012137 3.13792 -4.19261 -88.2632 
667 2 2 -0.012137 3.87765 -3.51971 -88.2632 
668 2 2 -0.012137 4.47599 -2.71847 -88.2632 
669 2 2 -0.012137 4.91111 -1.8181 -88.2632 
670 2 2 -0.012137 5.16716 -0.851434 -88.2632 
671 2 2 -0.012137 5.23684 0 -87.2632 
672 2 2 -0.012137 5.14136 0.995432 -87.2632 
673 2 2 -0.012137 4.85841 1.95457 -87.2632 
674 2 2 -0.012137 4.39831 2.84243 -87.2632 
675 2 2 -0.012137 3.77782 3.62665 -87.2632 
676 2 2 -0.012137 3.01958 4.27862 -87.2632 
677 2 2 -0.012137 2.15124 4.77459 -87.2632 
678 2 2 -0.012137 1.20445 5.09645 -87.2632 